+ 0.1 0 1 cbr 800 ------- 0 0.0 2.0 0 0
- 0.1 0 1 cbr 800 ------- 0 0.0 2.0 0 0
r 0.1164 0 1 cbr 800 ------- 0 0.0 2.0 0 0
+ 0.1164 1 2 cbr 800 ------- 0 0.0 2.0 0 0
- 0.1164 1 2 cbr 800 ------- 0 0.0 2.0 0 0
r 0.137067 1 2 cbr 800 ------- 0 0.0 2.0 0 0
+ 0.9 0 1 cbr 800 ------- 0 0.0 2.0 1 1
- 0.9 0 1 cbr 800 ------- 0 0.0 2.0 1 1
r 0.9164 0 1 cbr 800 ------- 0 0.0 2.0 1 1
+ 0.9164 1 2 cbr 800 ------- 0 0.0 2.0 1 1
- 0.9164 1 2 cbr 800 ------- 0 0.0 2.0 1 1
r 0.937067 1 2 cbr 800 ------- 0 0.0 2.0 1 1
+ 1.7 0 1 cbr 800 ------- 0 0.0 2.0 2 2
- 1.7 0 1 cbr 800 ------- 0 0.0 2.0 2 2
r 1.7164 0 1 cbr 800 ------- 0 0.0 2.0 2 2
+ 1.7164 1 2 cbr 800 ------- 0 0.0 2.0 2 2
- 1.7164 1 2 cbr 800 ------- 0 0.0 2.0 2 2
r 1.737067 1 2 cbr 800 ------- 0 0.0 2.0 2 2
+ 2.5 0 1 cbr 800 ------- 0 0.0 2.0 3 3
- 2.5 0 1 cbr 800 ------- 0 0.0 2.0 3 3
r 2.5164 0 1 cbr 800 ------- 0 0.0 2.0 3 3
+ 2.5164 1 2 cbr 800 ------- 0 0.0 2.0 3 3
- 2.5164 1 2 cbr 800 ------- 0 0.0 2.0 3 3
r 2.537067 1 2 cbr 800 ------- 0 0.0 2.0 3 3
+ 3.3 0 1 cbr 800 ------- 0 0.0 2.0 4 4
- 3.3 0 1 cbr 800 ------- 0 0.0 2.0 4 4
r 3.3164 0 1 cbr 800 ------- 0 0.0 2.0 4 4
+ 3.3164 1 2 cbr 800 ------- 0 0.0 2.0 4 4
- 3.3164 1 2 cbr 800 ------- 0 0.0 2.0 4 4
r 3.337067 1 2 cbr 800 ------- 0 0.0 2.0 4 4
+ 4.1 0 1 cbr 800 ------- 0 0.0 2.0 5 5
- 4.1 0 1 cbr 800 ------- 0 0.0 2.0 5 5
r 4.1164 0 1 cbr 800 ------- 0 0.0 2.0 5 5
+ 4.1164 1 2 cbr 800 ------- 0 0.0 2.0 5 5
- 4.1164 1 2 cbr 800 ------- 0 0.0 2.0 5 5
r 4.137067 1 2 cbr 800 ------- 0 0.0 2.0 5 5
+ 4.9 0 1 cbr 800 ------- 0 0.0 2.0 6 6
- 4.9 0 1 cbr 800 ------- 0 0.0 2.0 6 6
r 4.9164 0 1 cbr 800 ------- 0 0.0 2.0 6 6
+ 4.9164 1 2 cbr 800 ------- 0 0.0 2.0 6 6
- 4.9164 1 2 cbr 800 ------- 0 0.0 2.0 6 6
r 4.937067 1 2 cbr 800 ------- 0 0.0 2.0 6 6
