n -t 0 -s 0 -S DLABEL -l "src1" -L ""
n -t 0 -s 2 -S DLABEL -l "src2" -L ""
n -t 0 -s 5 -S DLABEL -l "dest1" -L ""
n -t 0 -s 3 -S DLABEL -l "dest2" -L ""
V -t * -v 1.0a5 -a 0
A -t * -n 1 -p 0 -o 0x7fffffff -c 30 -a 1
A -t * -h 1 -m 1073741823 -s 0
n -t * -a 4 -s 4 -S UP -v circle -c black -i black
n -t * -a 0 -s 0 -S UP -v circle -c black -i black
n -t * -a 5 -s 5 -S UP -v circle -c black -i black
n -t * -a 1 -s 1 -S UP -v circle -c black -i black
n -t * -a 2 -s 2 -S UP -v circle -c black -i black
n -t * -a 3 -s 3 -S UP -v circle -c black -i black
l -t * -s 4 -d 5 -S UP -r 1000000 -D 0.001 -c black -o right
X -t * -n 6 -r 50Mb -D 100ms -o left
L -t * -s 6 -d 0 -o up
L -t * -s 6 -d 1 -o down
L -t * -s 6 -d 2 -o up
L -t * -s 6 -d 3 -o down
L -t * -s 6 -d 4 -o up
h -t 0.1 -s 0 -d 6 -p tcp -e 40 -c 0 -i 0 -a 0 -x {0.0 5.0 0 ------- null}
h -t 0.2 -s 2 -d 6 -p tcp -e 40 -c 0 -i 1 -a 0 -x {2.0 3.0 0 ------- null}
+ -t 0.2 -s 0 -d 6 -p tcp -e 40 -c 0 -i 0 -a 0 -x {0.0 5.0 0 ------- null}
- -t 0.2 -s 0 -d 6 -p tcp -e 40 -c 0 -i 0 -a 0 -x {0.0 5.0 0 ------- null}
h -t 0.2 -s 0 -d 6 -p tcp -e 40 -c 0 -i 0 -a 0 -x {0.0 5.0 -1 ------- null}
d -t 0.200004 -s 3 -d 6 -p tcp -e 40 -c 0 -i 0 -a 0 -x {0.0 5.0 0 ------- null}
d -t 0.200004 -s 2 -d 6 -p tcp -e 40 -c 0 -i 0 -a 0 -x {0.0 5.0 0 ------- null}
d -t 0.200004 -s 1 -d 6 -p tcp -e 40 -c 0 -i 0 -a 0 -x {0.0 5.0 0 ------- null}
+ -t 0.3 -s 2 -d 6 -p tcp -e 40 -c 0 -i 1 -a 0 -x {2.0 3.0 0 ------- null}
- -t 0.3 -s 2 -d 6 -p tcp -e 40 -c 0 -i 1 -a 0 -x {2.0 3.0 0 ------- null}
h -t 0.3 -s 2 -d 6 -p tcp -e 40 -c 0 -i 1 -a 0 -x {2.0 3.0 -1 ------- null}
r -t 0.300004 -s 6 -d 4 -p tcp -e 40 -c 0 -i 0 -a 0 -x {0.0 5.0 0 ------- null}
+ -t 0.300004 -s 4 -d 5 -p tcp -e 40 -c 0 -i 0 -a 0 -x {0.0 5.0 0 ------- null}
- -t 0.300004 -s 4 -d 5 -p tcp -e 40 -c 0 -i 0 -a 0 -x {0.0 5.0 0 ------- null}
h -t 0.300004 -s 4 -d 5 -p tcp -e 40 -c 0 -i 0 -a 0 -x {0.0 5.0 -1 ------- null}
d -t 0.300004 -s 4 -d 6 -p tcp -e 40 -c 0 -i 1 -a 0 -x {2.0 3.0 0 ------- null}
d -t 0.300004 -s 1 -d 6 -p tcp -e 40 -c 0 -i 1 -a 0 -x {2.0 3.0 0 ------- null}
d -t 0.300004 -s 0 -d 6 -p tcp -e 40 -c 0 -i 1 -a 0 -x {2.0 3.0 0 ------- null}
r -t 0.301324 -s 4 -d 5 -p tcp -e 40 -c 0 -i 0 -a 0 -x {0.0 5.0 0 ------- null}
+ -t 0.301324 -s 5 -d 4 -p ack -e 40 -c 0 -i 2 -a 0 -x {5.0 0.0 0 ------- null}
- -t 0.301324 -s 5 -d 4 -p ack -e 40 -c 0 -i 2 -a 0 -x {5.0 0.0 0 ------- null}
h -t 0.301324 -s 5 -d 4 -p ack -e 40 -c 0 -i 2 -a 0 -x {5.0 0.0 -1 ------- null}
r -t 0.302644 -s 5 -d 4 -p ack -e 40 -c 0 -i 2 -a 0 -x {5.0 0.0 0 ------- null}
h -t 0.302644 -s 4 -d 6 -p ack -e 40 -c 0 -i 2 -a 0 -x {5.0 0.0 0 ------- null}
r -t 0.400004 -s 6 -d 3 -p tcp -e 40 -c 0 -i 1 -a 0 -x {2.0 3.0 0 ------- null}
h -t 0.400004 -s 3 -d 6 -p ack -e 40 -c 0 -i 3 -a 0 -x {3.0 2.0 0 ------- null}
+ -t 0.402644 -s 4 -d 6 -p ack -e 40 -c 0 -i 2 -a 0 -x {5.0 0.0 0 ------- null}
- -t 0.402644 -s 4 -d 6 -p ack -e 40 -c 0 -i 2 -a 0 -x {5.0 0.0 0 ------- null}
h -t 0.402644 -s 4 -d 6 -p ack -e 40 -c 0 -i 2 -a 0 -x {5.0 0.0 -1 ------- null}
d -t 0.402648 -s 3 -d 6 -p ack -e 40 -c 0 -i 2 -a 0 -x {5.0 0.0 0 ------- null}
d -t 0.402648 -s 2 -d 6 -p ack -e 40 -c 0 -i 2 -a 0 -x {5.0 0.0 0 ------- null}
d -t 0.402648 -s 1 -d 6 -p ack -e 40 -c 0 -i 2 -a 0 -x {5.0 0.0 0 ------- null}
+ -t 0.500004 -s 3 -d 6 -p ack -e 40 -c 0 -i 3 -a 0 -x {3.0 2.0 0 ------- null}
- -t 0.500004 -s 3 -d 6 -p ack -e 40 -c 0 -i 3 -a 0 -x {3.0 2.0 0 ------- null}
h -t 0.500004 -s 3 -d 6 -p ack -e 40 -c 0 -i 3 -a 0 -x {3.0 2.0 -1 ------- null}
d -t 0.500008 -s 4 -d 6 -p ack -e 40 -c 0 -i 3 -a 0 -x {3.0 2.0 0 ------- null}
d -t 0.500008 -s 1 -d 6 -p ack -e 40 -c 0 -i 3 -a 0 -x {3.0 2.0 0 ------- null}
d -t 0.500008 -s 0 -d 6 -p ack -e 40 -c 0 -i 3 -a 0 -x {3.0 2.0 0 ------- null}
r -t 0.502648 -s 6 -d 0 -p ack -e 40 -c 0 -i 2 -a 0 -x {5.0 0.0 0 ------- null}
h -t 0.502648 -s 0 -d 6 -p tcp -e 1040 -c 0 -i 4 -a 0 -x {0.0 5.0 1 ------- null}
h -t 0.502648 -s 0 -d 6 -p tcp -e 1040 -c 0 -i 5 -a 0 -x {0.0 5.0 2 ------- null}
r -t 0.600008 -s 6 -d 2 -p ack -e 40 -c 0 -i 3 -a 0 -x {3.0 2.0 0 ------- null}
h -t 0.600008 -s 2 -d 6 -p tcp -e 1040 -c 0 -i 6 -a 0 -x {2.0 3.0 1 ------- null}
h -t 0.600008 -s 2 -d 6 -p tcp -e 1040 -c 0 -i 7 -a 0 -x {2.0 3.0 2 ------- null}
+ -t 0.602648 -s 0 -d 6 -p tcp -e 1040 -c 0 -i 4 -a 0 -x {0.0 5.0 1 ------- null}
- -t 0.602648 -s 0 -d 6 -p tcp -e 1040 -c 0 -i 4 -a 0 -x {0.0 5.0 1 ------- null}
h -t 0.602648 -s 0 -d 6 -p tcp -e 1040 -c 0 -i 4 -a 0 -x {0.0 5.0 -1 ------- null}
+ -t 0.602648 -s 0 -d 6 -p tcp -e 1040 -c 0 -i 5 -a 0 -x {0.0 5.0 2 ------- null}
d -t 0.602652 -s 3 -d 6 -p tcp -e 1040 -c 0 -i 4 -a 0 -x {0.0 5.0 1 ------- null}
d -t 0.602652 -s 2 -d 6 -p tcp -e 1040 -c 0 -i 4 -a 0 -x {0.0 5.0 1 ------- null}
d -t 0.602652 -s 1 -d 6 -p tcp -e 1040 -c 0 -i 4 -a 0 -x {0.0 5.0 1 ------- null}
- -t 0.607064 -s 0 -d 6 -p tcp -e 1040 -c 0 -i 5 -a 0 -x {0.0 5.0 2 ------- null}
h -t 0.607064 -s 0 -d 6 -p tcp -e 1040 -c 0 -i 5 -a 0 -x {0.0 5.0 -1 ------- null}
d -t 0.607068 -s 3 -d 6 -p tcp -e 1040 -c 0 -i 5 -a 0 -x {0.0 5.0 2 ------- null}
d -t 0.607068 -s 2 -d 6 -p tcp -e 1040 -c 0 -i 5 -a 0 -x {0.0 5.0 2 ------- null}
d -t 0.607068 -s 1 -d 6 -p tcp -e 1040 -c 0 -i 5 -a 0 -x {0.0 5.0 2 ------- null}
+ -t 0.700008 -s 2 -d 6 -p tcp -e 1040 -c 0 -i 6 -a 0 -x {2.0 3.0 1 ------- null}
- -t 0.700008 -s 2 -d 6 -p tcp -e 1040 -c 0 -i 6 -a 0 -x {2.0 3.0 1 ------- null}
h -t 0.700008 -s 2 -d 6 -p tcp -e 1040 -c 0 -i 6 -a 0 -x {2.0 3.0 -1 ------- null}
+ -t 0.700008 -s 2 -d 6 -p tcp -e 1040 -c 0 -i 7 -a 0 -x {2.0 3.0 2 ------- null}
d -t 0.700012 -s 4 -d 6 -p tcp -e 1040 -c 0 -i 6 -a 0 -x {2.0 3.0 1 ------- null}
d -t 0.700012 -s 1 -d 6 -p tcp -e 1040 -c 0 -i 6 -a 0 -x {2.0 3.0 1 ------- null}
d -t 0.700012 -s 0 -d 6 -p tcp -e 1040 -c 0 -i 6 -a 0 -x {2.0 3.0 1 ------- null}
r -t 0.702652 -s 6 -d 4 -p tcp -e 1040 -c 0 -i 4 -a 0 -x {0.0 5.0 1 ------- null}
+ -t 0.702652 -s 4 -d 5 -p tcp -e 1040 -c 0 -i 4 -a 0 -x {0.0 5.0 1 ------- null}
- -t 0.702652 -s 4 -d 5 -p tcp -e 1040 -c 0 -i 4 -a 0 -x {0.0 5.0 1 ------- null}
h -t 0.702652 -s 4 -d 5 -p tcp -e 1040 -c 0 -i 4 -a 0 -x {0.0 5.0 -1 ------- null}
- -t 0.704424 -s 2 -d 6 -p tcp -e 1040 -c 0 -i 7 -a 0 -x {2.0 3.0 2 ------- null}
h -t 0.704424 -s 2 -d 6 -p tcp -e 1040 -c 0 -i 7 -a 0 -x {2.0 3.0 -1 ------- null}
d -t 0.704428 -s 4 -d 6 -p tcp -e 1040 -c 0 -i 7 -a 0 -x {2.0 3.0 2 ------- null}
d -t 0.704428 -s 1 -d 6 -p tcp -e 1040 -c 0 -i 7 -a 0 -x {2.0 3.0 2 ------- null}
d -t 0.704428 -s 0 -d 6 -p tcp -e 1040 -c 0 -i 7 -a 0 -x {2.0 3.0 2 ------- null}
r -t 0.707068 -s 6 -d 4 -p tcp -e 1040 -c 0 -i 5 -a 0 -x {0.0 5.0 2 ------- null}
+ -t 0.707068 -s 4 -d 5 -p tcp -e 1040 -c 0 -i 5 -a 0 -x {0.0 5.0 2 ------- null}
- -t 0.710972 -s 4 -d 5 -p tcp -e 1040 -c 0 -i 5 -a 0 -x {0.0 5.0 2 ------- null}
h -t 0.710972 -s 4 -d 5 -p tcp -e 1040 -c 0 -i 5 -a 0 -x {0.0 5.0 -1 ------- null}
r -t 0.711972 -s 4 -d 5 -p tcp -e 1040 -c 0 -i 4 -a 0 -x {0.0 5.0 1 ------- null}
+ -t 0.711972 -s 5 -d 4 -p ack -e 40 -c 0 -i 8 -a 0 -x {5.0 0.0 1 ------- null}
- -t 0.711972 -s 5 -d 4 -p ack -e 40 -c 0 -i 8 -a 0 -x {5.0 0.0 1 ------- null}
h -t 0.711972 -s 5 -d 4 -p ack -e 40 -c 0 -i 8 -a 0 -x {5.0 0.0 -1 ------- null}
r -t 0.713292 -s 5 -d 4 -p ack -e 40 -c 0 -i 8 -a 0 -x {5.0 0.0 1 ------- null}
h -t 0.713292 -s 4 -d 6 -p ack -e 40 -c 0 -i 8 -a 0 -x {5.0 0.0 1 ------- null}
r -t 0.720292 -s 4 -d 5 -p tcp -e 1040 -c 0 -i 5 -a 0 -x {0.0 5.0 2 ------- null}
+ -t 0.720292 -s 5 -d 4 -p ack -e 40 -c 0 -i 9 -a 0 -x {5.0 0.0 2 ------- null}
- -t 0.720292 -s 5 -d 4 -p ack -e 40 -c 0 -i 9 -a 0 -x {5.0 0.0 2 ------- null}
h -t 0.720292 -s 5 -d 4 -p ack -e 40 -c 0 -i 9 -a 0 -x {5.0 0.0 -1 ------- null}
r -t 0.721612 -s 5 -d 4 -p ack -e 40 -c 0 -i 9 -a 0 -x {5.0 0.0 2 ------- null}
h -t 0.721612 -s 4 -d 6 -p ack -e 40 -c 0 -i 9 -a 0 -x {5.0 0.0 2 ------- null}
r -t 0.800012 -s 6 -d 3 -p tcp -e 1040 -c 0 -i 6 -a 0 -x {2.0 3.0 1 ------- null}
h -t 0.800012 -s 3 -d 6 -p ack -e 40 -c 0 -i 10 -a 0 -x {3.0 2.0 1 ------- null}
r -t 0.804428 -s 6 -d 3 -p tcp -e 1040 -c 0 -i 7 -a 0 -x {2.0 3.0 2 ------- null}
h -t 0.804428 -s 3 -d 6 -p ack -e 40 -c 0 -i 11 -a 0 -x {3.0 2.0 2 ------- null}
+ -t 0.813292 -s 4 -d 6 -p ack -e 40 -c 0 -i 8 -a 0 -x {5.0 0.0 1 ------- null}
- -t 0.813292 -s 4 -d 6 -p ack -e 40 -c 0 -i 8 -a 0 -x {5.0 0.0 1 ------- null}
h -t 0.813292 -s 4 -d 6 -p ack -e 40 -c 0 -i 8 -a 0 -x {5.0 0.0 -1 ------- null}
d -t 0.813296 -s 3 -d 6 -p ack -e 40 -c 0 -i 8 -a 0 -x {5.0 0.0 1 ------- null}
d -t 0.813296 -s 2 -d 6 -p ack -e 40 -c 0 -i 8 -a 0 -x {5.0 0.0 1 ------- null}
d -t 0.813296 -s 1 -d 6 -p ack -e 40 -c 0 -i 8 -a 0 -x {5.0 0.0 1 ------- null}
+ -t 0.821612 -s 4 -d 6 -p ack -e 40 -c 0 -i 9 -a 0 -x {5.0 0.0 2 ------- null}
- -t 0.821612 -s 4 -d 6 -p ack -e 40 -c 0 -i 9 -a 0 -x {5.0 0.0 2 ------- null}
h -t 0.821612 -s 4 -d 6 -p ack -e 40 -c 0 -i 9 -a 0 -x {5.0 0.0 -1 ------- null}
d -t 0.821616 -s 3 -d 6 -p ack -e 40 -c 0 -i 9 -a 0 -x {5.0 0.0 2 ------- null}
d -t 0.821616 -s 2 -d 6 -p ack -e 40 -c 0 -i 9 -a 0 -x {5.0 0.0 2 ------- null}
d -t 0.821616 -s 1 -d 6 -p ack -e 40 -c 0 -i 9 -a 0 -x {5.0 0.0 2 ------- null}
+ -t 0.900012 -s 3 -d 6 -p ack -e 40 -c 0 -i 10 -a 0 -x {3.0 2.0 1 ------- null}
- -t 0.900012 -s 3 -d 6 -p ack -e 40 -c 0 -i 10 -a 0 -x {3.0 2.0 1 ------- null}
h -t 0.900012 -s 3 -d 6 -p ack -e 40 -c 0 -i 10 -a 0 -x {3.0 2.0 -1 ------- null}
d -t 0.900016 -s 4 -d 6 -p ack -e 40 -c 0 -i 10 -a 0 -x {3.0 2.0 1 ------- null}
d -t 0.900016 -s 1 -d 6 -p ack -e 40 -c 0 -i 10 -a 0 -x {3.0 2.0 1 ------- null}
d -t 0.900016 -s 0 -d 6 -p ack -e 40 -c 0 -i 10 -a 0 -x {3.0 2.0 1 ------- null}
+ -t 0.904428 -s 3 -d 6 -p ack -e 40 -c 0 -i 11 -a 0 -x {3.0 2.0 2 ------- null}
- -t 0.904428 -s 3 -d 6 -p ack -e 40 -c 0 -i 11 -a 0 -x {3.0 2.0 2 ------- null}
h -t 0.904428 -s 3 -d 6 -p ack -e 40 -c 0 -i 11 -a 0 -x {3.0 2.0 -1 ------- null}
d -t 0.904432 -s 4 -d 6 -p ack -e 40 -c 0 -i 11 -a 0 -x {3.0 2.0 2 ------- null}
d -t 0.904432 -s 1 -d 6 -p ack -e 40 -c 0 -i 11 -a 0 -x {3.0 2.0 2 ------- null}
d -t 0.904432 -s 0 -d 6 -p ack -e 40 -c 0 -i 11 -a 0 -x {3.0 2.0 2 ------- null}
r -t 0.913296 -s 6 -d 0 -p ack -e 40 -c 0 -i 8 -a 0 -x {5.0 0.0 1 ------- null}
h -t 0.913296 -s 0 -d 6 -p tcp -e 1040 -c 0 -i 12 -a 0 -x {0.0 5.0 3 ------- null}
h -t 0.913296 -s 0 -d 6 -p tcp -e 1040 -c 0 -i 13 -a 0 -x {0.0 5.0 4 ------- null}
r -t 0.921616 -s 6 -d 0 -p ack -e 40 -c 0 -i 9 -a 0 -x {5.0 0.0 2 ------- null}
h -t 0.921616 -s 0 -d 6 -p tcp -e 1040 -c 0 -i 14 -a 0 -x {0.0 5.0 5 ------- null}
h -t 0.921616 -s 0 -d 6 -p tcp -e 1040 -c 0 -i 15 -a 0 -x {0.0 5.0 6 ------- null}
r -t 1.000016 -s 6 -d 2 -p ack -e 40 -c 0 -i 10 -a 0 -x {3.0 2.0 1 ------- null}
h -t 1.000016 -s 2 -d 6 -p tcp -e 1040 -c 0 -i 16 -a 0 -x {2.0 3.0 3 ------- null}
h -t 1.000016 -s 2 -d 6 -p tcp -e 1040 -c 0 -i 17 -a 0 -x {2.0 3.0 4 ------- null}
r -t 1.004432 -s 6 -d 2 -p ack -e 40 -c 0 -i 11 -a 0 -x {3.0 2.0 2 ------- null}
h -t 1.004432 -s 2 -d 6 -p tcp -e 1040 -c 0 -i 18 -a 0 -x {2.0 3.0 5 ------- null}
h -t 1.004432 -s 2 -d 6 -p tcp -e 1040 -c 0 -i 19 -a 0 -x {2.0 3.0 6 ------- null}
+ -t 1.013296 -s 0 -d 6 -p tcp -e 1040 -c 0 -i 12 -a 0 -x {0.0 5.0 3 ------- null}
- -t 1.013296 -s 0 -d 6 -p tcp -e 1040 -c 0 -i 12 -a 0 -x {0.0 5.0 3 ------- null}
h -t 1.013296 -s 0 -d 6 -p tcp -e 1040 -c 0 -i 12 -a 0 -x {0.0 5.0 -1 ------- null}
+ -t 1.013296 -s 0 -d 6 -p tcp -e 1040 -c 0 -i 13 -a 0 -x {0.0 5.0 4 ------- null}
d -t 1.0133 -s 3 -d 6 -p tcp -e 1040 -c 0 -i 12 -a 0 -x {0.0 5.0 3 ------- null}
d -t 1.0133 -s 2 -d 6 -p tcp -e 1040 -c 0 -i 12 -a 0 -x {0.0 5.0 3 ------- null}
d -t 1.0133 -s 1 -d 6 -p tcp -e 1040 -c 0 -i 12 -a 0 -x {0.0 5.0 3 ------- null}
- -t 1.017712 -s 0 -d 6 -p tcp -e 1040 -c 0 -i 13 -a 0 -x {0.0 5.0 4 ------- null}
h -t 1.017712 -s 0 -d 6 -p tcp -e 1040 -c 0 -i 13 -a 0 -x {0.0 5.0 -1 ------- null}
d -t 1.017716 -s 3 -d 6 -p tcp -e 1040 -c 0 -i 13 -a 0 -x {0.0 5.0 4 ------- null}
d -t 1.017716 -s 2 -d 6 -p tcp -e 1040 -c 0 -i 13 -a 0 -x {0.0 5.0 4 ------- null}
d -t 1.017716 -s 1 -d 6 -p tcp -e 1040 -c 0 -i 13 -a 0 -x {0.0 5.0 4 ------- null}
+ -t 1.021616 -s 0 -d 6 -p tcp -e 1040 -c 0 -i 14 -a 0 -x {0.0 5.0 5 ------- null}
+ -t 1.021616 -s 0 -d 6 -p tcp -e 1040 -c 0 -i 15 -a 0 -x {0.0 5.0 6 ------- null}
- -t 1.022128 -s 0 -d 6 -p tcp -e 1040 -c 0 -i 14 -a 0 -x {0.0 5.0 5 ------- null}
h -t 1.022128 -s 0 -d 6 -p tcp -e 1040 -c 0 -i 14 -a 0 -x {0.0 5.0 -1 ------- null}
d -t 1.022132 -s 3 -d 6 -p tcp -e 1040 -c 0 -i 14 -a 0 -x {0.0 5.0 5 ------- null}
d -t 1.022132 -s 2 -d 6 -p tcp -e 1040 -c 0 -i 14 -a 0 -x {0.0 5.0 5 ------- null}
d -t 1.022132 -s 1 -d 6 -p tcp -e 1040 -c 0 -i 14 -a 0 -x {0.0 5.0 5 ------- null}
- -t 1.026544 -s 0 -d 6 -p tcp -e 1040 -c 0 -i 15 -a 0 -x {0.0 5.0 6 ------- null}
h -t 1.026544 -s 0 -d 6 -p tcp -e 1040 -c 0 -i 15 -a 0 -x {0.0 5.0 -1 ------- null}
d -t 1.026548 -s 3 -d 6 -p tcp -e 1040 -c 0 -i 15 -a 0 -x {0.0 5.0 6 ------- null}
d -t 1.026548 -s 2 -d 6 -p tcp -e 1040 -c 0 -i 15 -a 0 -x {0.0 5.0 6 ------- null}
d -t 1.026548 -s 1 -d 6 -p tcp -e 1040 -c 0 -i 15 -a 0 -x {0.0 5.0 6 ------- null}
+ -t 1.100016 -s 2 -d 6 -p tcp -e 1040 -c 0 -i 16 -a 0 -x {2.0 3.0 3 ------- null}
- -t 1.100016 -s 2 -d 6 -p tcp -e 1040 -c 0 -i 16 -a 0 -x {2.0 3.0 3 ------- null}
h -t 1.100016 -s 2 -d 6 -p tcp -e 1040 -c 0 -i 16 -a 0 -x {2.0 3.0 -1 ------- null}
+ -t 1.100016 -s 2 -d 6 -p tcp -e 1040 -c 0 -i 17 -a 0 -x {2.0 3.0 4 ------- null}
d -t 1.10002 -s 4 -d 6 -p tcp -e 1040 -c 0 -i 16 -a 0 -x {2.0 3.0 3 ------- null}
d -t 1.10002 -s 1 -d 6 -p tcp -e 1040 -c 0 -i 16 -a 0 -x {2.0 3.0 3 ------- null}
d -t 1.10002 -s 0 -d 6 -p tcp -e 1040 -c 0 -i 16 -a 0 -x {2.0 3.0 3 ------- null}
+ -t 1.104432 -s 2 -d 6 -p tcp -e 1040 -c 0 -i 18 -a 0 -x {2.0 3.0 5 ------- null}
+ -t 1.104432 -s 2 -d 6 -p tcp -e 1040 -c 0 -i 19 -a 0 -x {2.0 3.0 6 ------- null}
- -t 1.104432 -s 2 -d 6 -p tcp -e 1040 -c 0 -i 17 -a 0 -x {2.0 3.0 4 ------- null}
h -t 1.104432 -s 2 -d 6 -p tcp -e 1040 -c 0 -i 17 -a 0 -x {2.0 3.0 -1 ------- null}
d -t 1.104436 -s 4 -d 6 -p tcp -e 1040 -c 0 -i 17 -a 0 -x {2.0 3.0 4 ------- null}
d -t 1.104436 -s 1 -d 6 -p tcp -e 1040 -c 0 -i 17 -a 0 -x {2.0 3.0 4 ------- null}
d -t 1.104436 -s 0 -d 6 -p tcp -e 1040 -c 0 -i 17 -a 0 -x {2.0 3.0 4 ------- null}
- -t 1.108848 -s 2 -d 6 -p tcp -e 1040 -c 0 -i 18 -a 0 -x {2.0 3.0 5 ------- null}
h -t 1.108848 -s 2 -d 6 -p tcp -e 1040 -c 0 -i 18 -a 0 -x {2.0 3.0 -1 ------- null}
d -t 1.108852 -s 4 -d 6 -p tcp -e 1040 -c 0 -i 18 -a 0 -x {2.0 3.0 5 ------- null}
d -t 1.108852 -s 1 -d 6 -p tcp -e 1040 -c 0 -i 18 -a 0 -x {2.0 3.0 5 ------- null}
d -t 1.108852 -s 0 -d 6 -p tcp -e 1040 -c 0 -i 18 -a 0 -x {2.0 3.0 5 ------- null}
- -t 1.113264 -s 2 -d 6 -p tcp -e 1040 -c 0 -i 19 -a 0 -x {2.0 3.0 6 ------- null}
h -t 1.113264 -s 2 -d 6 -p tcp -e 1040 -c 0 -i 19 -a 0 -x {2.0 3.0 -1 ------- null}
d -t 1.113268 -s 4 -d 6 -p tcp -e 1040 -c 0 -i 19 -a 0 -x {2.0 3.0 6 ------- null}
d -t 1.113268 -s 1 -d 6 -p tcp -e 1040 -c 0 -i 19 -a 0 -x {2.0 3.0 6 ------- null}
d -t 1.113268 -s 0 -d 6 -p tcp -e 1040 -c 0 -i 19 -a 0 -x {2.0 3.0 6 ------- null}
r -t 1.1133 -s 6 -d 4 -p tcp -e 1040 -c 0 -i 12 -a 0 -x {0.0 5.0 3 ------- null}
+ -t 1.1133 -s 4 -d 5 -p tcp -e 1040 -c 0 -i 12 -a 0 -x {0.0 5.0 3 ------- null}
- -t 1.1133 -s 4 -d 5 -p tcp -e 1040 -c 0 -i 12 -a 0 -x {0.0 5.0 3 ------- null}
h -t 1.1133 -s 4 -d 5 -p tcp -e 1040 -c 0 -i 12 -a 0 -x {0.0 5.0 -1 ------- null}
r -t 1.117716 -s 6 -d 4 -p tcp -e 1040 -c 0 -i 13 -a 0 -x {0.0 5.0 4 ------- null}
+ -t 1.117716 -s 4 -d 5 -p tcp -e 1040 -c 0 -i 13 -a 0 -x {0.0 5.0 4 ------- null}
- -t 1.12162 -s 4 -d 5 -p tcp -e 1040 -c 0 -i 13 -a 0 -x {0.0 5.0 4 ------- null}
h -t 1.12162 -s 4 -d 5 -p tcp -e 1040 -c 0 -i 13 -a 0 -x {0.0 5.0 -1 ------- null}
r -t 1.122132 -s 6 -d 4 -p tcp -e 1040 -c 0 -i 14 -a 0 -x {0.0 5.0 5 ------- null}
+ -t 1.122132 -s 4 -d 5 -p tcp -e 1040 -c 0 -i 14 -a 0 -x {0.0 5.0 5 ------- null}
r -t 1.12262 -s 4 -d 5 -p tcp -e 1040 -c 0 -i 12 -a 0 -x {0.0 5.0 3 ------- null}
+ -t 1.12262 -s 5 -d 4 -p ack -e 40 -c 0 -i 20 -a 0 -x {5.0 0.0 3 ------- null}
- -t 1.12262 -s 5 -d 4 -p ack -e 40 -c 0 -i 20 -a 0 -x {5.0 0.0 3 ------- null}
h -t 1.12262 -s 5 -d 4 -p ack -e 40 -c 0 -i 20 -a 0 -x {5.0 0.0 -1 ------- null}
r -t 1.12394 -s 5 -d 4 -p ack -e 40 -c 0 -i 20 -a 0 -x {5.0 0.0 3 ------- null}
h -t 1.12394 -s 4 -d 6 -p ack -e 40 -c 0 -i 20 -a 0 -x {5.0 0.0 3 ------- null}
r -t 1.126548 -s 6 -d 4 -p tcp -e 1040 -c 0 -i 15 -a 0 -x {0.0 5.0 6 ------- null}
+ -t 1.126548 -s 4 -d 5 -p tcp -e 1040 -c 0 -i 15 -a 0 -x {0.0 5.0 6 ------- null}
- -t 1.12994 -s 4 -d 5 -p tcp -e 1040 -c 0 -i 14 -a 0 -x {0.0 5.0 5 ------- null}
h -t 1.12994 -s 4 -d 5 -p tcp -e 1040 -c 0 -i 14 -a 0 -x {0.0 5.0 -1 ------- null}
r -t 1.13094 -s 4 -d 5 -p tcp -e 1040 -c 0 -i 13 -a 0 -x {0.0 5.0 4 ------- null}
+ -t 1.13094 -s 5 -d 4 -p ack -e 40 -c 0 -i 21 -a 0 -x {5.0 0.0 4 ------- null}
- -t 1.13094 -s 5 -d 4 -p ack -e 40 -c 0 -i 21 -a 0 -x {5.0 0.0 4 ------- null}
h -t 1.13094 -s 5 -d 4 -p ack -e 40 -c 0 -i 21 -a 0 -x {5.0 0.0 -1 ------- null}
r -t 1.13226 -s 5 -d 4 -p ack -e 40 -c 0 -i 21 -a 0 -x {5.0 0.0 4 ------- null}
h -t 1.13226 -s 4 -d 6 -p ack -e 40 -c 0 -i 21 -a 0 -x {5.0 0.0 4 ------- null}
- -t 1.13826 -s 4 -d 5 -p tcp -e 1040 -c 0 -i 15 -a 0 -x {0.0 5.0 6 ------- null}
h -t 1.13826 -s 4 -d 5 -p tcp -e 1040 -c 0 -i 15 -a 0 -x {0.0 5.0 -1 ------- null}
r -t 1.13926 -s 4 -d 5 -p tcp -e 1040 -c 0 -i 14 -a 0 -x {0.0 5.0 5 ------- null}
+ -t 1.13926 -s 5 -d 4 -p ack -e 40 -c 0 -i 22 -a 0 -x {5.0 0.0 5 ------- null}
- -t 1.13926 -s 5 -d 4 -p ack -e 40 -c 0 -i 22 -a 0 -x {5.0 0.0 5 ------- null}
h -t 1.13926 -s 5 -d 4 -p ack -e 40 -c 0 -i 22 -a 0 -x {5.0 0.0 -1 ------- null}
r -t 1.14058 -s 5 -d 4 -p ack -e 40 -c 0 -i 22 -a 0 -x {5.0 0.0 5 ------- null}
h -t 1.14058 -s 4 -d 6 -p ack -e 40 -c 0 -i 22 -a 0 -x {5.0 0.0 5 ------- null}
r -t 1.14758 -s 4 -d 5 -p tcp -e 1040 -c 0 -i 15 -a 0 -x {0.0 5.0 6 ------- null}
+ -t 1.14758 -s 5 -d 4 -p ack -e 40 -c 0 -i 23 -a 0 -x {5.0 0.0 6 ------- null}
- -t 1.14758 -s 5 -d 4 -p ack -e 40 -c 0 -i 23 -a 0 -x {5.0 0.0 6 ------- null}
h -t 1.14758 -s 5 -d 4 -p ack -e 40 -c 0 -i 23 -a 0 -x {5.0 0.0 -1 ------- null}
r -t 1.1489 -s 5 -d 4 -p ack -e 40 -c 0 -i 23 -a 0 -x {5.0 0.0 6 ------- null}
h -t 1.1489 -s 4 -d 6 -p ack -e 40 -c 0 -i 23 -a 0 -x {5.0 0.0 6 ------- null}
r -t 1.20002 -s 6 -d 3 -p tcp -e 1040 -c 0 -i 16 -a 0 -x {2.0 3.0 3 ------- null}
h -t 1.20002 -s 3 -d 6 -p ack -e 40 -c 0 -i 24 -a 0 -x {3.0 2.0 3 ------- null}
r -t 1.204436 -s 6 -d 3 -p tcp -e 1040 -c 0 -i 17 -a 0 -x {2.0 3.0 4 ------- null}
h -t 1.204436 -s 3 -d 6 -p ack -e 40 -c 0 -i 25 -a 0 -x {3.0 2.0 4 ------- null}
r -t 1.208852 -s 6 -d 3 -p tcp -e 1040 -c 0 -i 18 -a 0 -x {2.0 3.0 5 ------- null}
h -t 1.208852 -s 3 -d 6 -p ack -e 40 -c 0 -i 26 -a 0 -x {3.0 2.0 5 ------- null}
r -t 1.213268 -s 6 -d 3 -p tcp -e 1040 -c 0 -i 19 -a 0 -x {2.0 3.0 6 ------- null}
h -t 1.213268 -s 3 -d 6 -p ack -e 40 -c 0 -i 27 -a 0 -x {3.0 2.0 6 ------- null}
+ -t 1.22394 -s 4 -d 6 -p ack -e 40 -c 0 -i 20 -a 0 -x {5.0 0.0 3 ------- null}
- -t 1.22394 -s 4 -d 6 -p ack -e 40 -c 0 -i 20 -a 0 -x {5.0 0.0 3 ------- null}
h -t 1.22394 -s 4 -d 6 -p ack -e 40 -c 0 -i 20 -a 0 -x {5.0 0.0 -1 ------- null}
d -t 1.223944 -s 3 -d 6 -p ack -e 40 -c 0 -i 20 -a 0 -x {5.0 0.0 3 ------- null}
d -t 1.223944 -s 2 -d 6 -p ack -e 40 -c 0 -i 20 -a 0 -x {5.0 0.0 3 ------- null}
d -t 1.223944 -s 1 -d 6 -p ack -e 40 -c 0 -i 20 -a 0 -x {5.0 0.0 3 ------- null}
+ -t 1.23226 -s 4 -d 6 -p ack -e 40 -c 0 -i 21 -a 0 -x {5.0 0.0 4 ------- null}
- -t 1.23226 -s 4 -d 6 -p ack -e 40 -c 0 -i 21 -a 0 -x {5.0 0.0 4 ------- null}
h -t 1.23226 -s 4 -d 6 -p ack -e 40 -c 0 -i 21 -a 0 -x {5.0 0.0 -1 ------- null}
d -t 1.232264 -s 3 -d 6 -p ack -e 40 -c 0 -i 21 -a 0 -x {5.0 0.0 4 ------- null}
d -t 1.232264 -s 2 -d 6 -p ack -e 40 -c 0 -i 21 -a 0 -x {5.0 0.0 4 ------- null}
d -t 1.232264 -s 1 -d 6 -p ack -e 40 -c 0 -i 21 -a 0 -x {5.0 0.0 4 ------- null}
+ -t 1.24058 -s 4 -d 6 -p ack -e 40 -c 0 -i 22 -a 0 -x {5.0 0.0 5 ------- null}
- -t 1.24058 -s 4 -d 6 -p ack -e 40 -c 0 -i 22 -a 0 -x {5.0 0.0 5 ------- null}
h -t 1.24058 -s 4 -d 6 -p ack -e 40 -c 0 -i 22 -a 0 -x {5.0 0.0 -1 ------- null}
d -t 1.240584 -s 3 -d 6 -p ack -e 40 -c 0 -i 22 -a 0 -x {5.0 0.0 5 ------- null}
d -t 1.240584 -s 2 -d 6 -p ack -e 40 -c 0 -i 22 -a 0 -x {5.0 0.0 5 ------- null}
d -t 1.240584 -s 1 -d 6 -p ack -e 40 -c 0 -i 22 -a 0 -x {5.0 0.0 5 ------- null}
+ -t 1.2489 -s 4 -d 6 -p ack -e 40 -c 0 -i 23 -a 0 -x {5.0 0.0 6 ------- null}
- -t 1.2489 -s 4 -d 6 -p ack -e 40 -c 0 -i 23 -a 0 -x {5.0 0.0 6 ------- null}
h -t 1.2489 -s 4 -d 6 -p ack -e 40 -c 0 -i 23 -a 0 -x {5.0 0.0 -1 ------- null}
d -t 1.248904 -s 3 -d 6 -p ack -e 40 -c 0 -i 23 -a 0 -x {5.0 0.0 6 ------- null}
d -t 1.248904 -s 2 -d 6 -p ack -e 40 -c 0 -i 23 -a 0 -x {5.0 0.0 6 ------- null}
d -t 1.248904 -s 1 -d 6 -p ack -e 40 -c 0 -i 23 -a 0 -x {5.0 0.0 6 ------- null}
+ -t 1.30002 -s 3 -d 6 -p ack -e 40 -c 0 -i 24 -a 0 -x {3.0 2.0 3 ------- null}
- -t 1.30002 -s 3 -d 6 -p ack -e 40 -c 0 -i 24 -a 0 -x {3.0 2.0 3 ------- null}
h -t 1.30002 -s 3 -d 6 -p ack -e 40 -c 0 -i 24 -a 0 -x {3.0 2.0 -1 ------- null}
d -t 1.300024 -s 4 -d 6 -p ack -e 40 -c 0 -i 24 -a 0 -x {3.0 2.0 3 ------- null}
d -t 1.300024 -s 1 -d 6 -p ack -e 40 -c 0 -i 24 -a 0 -x {3.0 2.0 3 ------- null}
d -t 1.300024 -s 0 -d 6 -p ack -e 40 -c 0 -i 24 -a 0 -x {3.0 2.0 3 ------- null}
+ -t 1.304436 -s 3 -d 6 -p ack -e 40 -c 0 -i 25 -a 0 -x {3.0 2.0 4 ------- null}
- -t 1.304436 -s 3 -d 6 -p ack -e 40 -c 0 -i 25 -a 0 -x {3.0 2.0 4 ------- null}
h -t 1.304436 -s 3 -d 6 -p ack -e 40 -c 0 -i 25 -a 0 -x {3.0 2.0 -1 ------- null}
d -t 1.30444 -s 4 -d 6 -p ack -e 40 -c 0 -i 25 -a 0 -x {3.0 2.0 4 ------- null}
d -t 1.30444 -s 1 -d 6 -p ack -e 40 -c 0 -i 25 -a 0 -x {3.0 2.0 4 ------- null}
d -t 1.30444 -s 0 -d 6 -p ack -e 40 -c 0 -i 25 -a 0 -x {3.0 2.0 4 ------- null}
+ -t 1.308852 -s 3 -d 6 -p ack -e 40 -c 0 -i 26 -a 0 -x {3.0 2.0 5 ------- null}
- -t 1.308852 -s 3 -d 6 -p ack -e 40 -c 0 -i 26 -a 0 -x {3.0 2.0 5 ------- null}
h -t 1.308852 -s 3 -d 6 -p ack -e 40 -c 0 -i 26 -a 0 -x {3.0 2.0 -1 ------- null}
d -t 1.308856 -s 4 -d 6 -p ack -e 40 -c 0 -i 26 -a 0 -x {3.0 2.0 5 ------- null}
d -t 1.308856 -s 1 -d 6 -p ack -e 40 -c 0 -i 26 -a 0 -x {3.0 2.0 5 ------- null}
d -t 1.308856 -s 0 -d 6 -p ack -e 40 -c 0 -i 26 -a 0 -x {3.0 2.0 5 ------- null}
+ -t 1.313268 -s 3 -d 6 -p ack -e 40 -c 0 -i 27 -a 0 -x {3.0 2.0 6 ------- null}
- -t 1.313268 -s 3 -d 6 -p ack -e 40 -c 0 -i 27 -a 0 -x {3.0 2.0 6 ------- null}
h -t 1.313268 -s 3 -d 6 -p ack -e 40 -c 0 -i 27 -a 0 -x {3.0 2.0 -1 ------- null}
d -t 1.313272 -s 4 -d 6 -p ack -e 40 -c 0 -i 27 -a 0 -x {3.0 2.0 6 ------- null}
d -t 1.313272 -s 1 -d 6 -p ack -e 40 -c 0 -i 27 -a 0 -x {3.0 2.0 6 ------- null}
d -t 1.313272 -s 0 -d 6 -p ack -e 40 -c 0 -i 27 -a 0 -x {3.0 2.0 6 ------- null}
r -t 1.323944 -s 6 -d 0 -p ack -e 40 -c 0 -i 20 -a 0 -x {5.0 0.0 3 ------- null}
h -t 1.323944 -s 0 -d 6 -p tcp -e 1040 -c 0 -i 28 -a 0 -x {0.0 5.0 7 ------- null}
h -t 1.323944 -s 0 -d 6 -p tcp -e 1040 -c 0 -i 29 -a 0 -x {0.0 5.0 8 ------- null}
r -t 1.332264 -s 6 -d 0 -p ack -e 40 -c 0 -i 21 -a 0 -x {5.0 0.0 4 ------- null}
h -t 1.332264 -s 0 -d 6 -p tcp -e 1040 -c 0 -i 30 -a 0 -x {0.0 5.0 9 ------- null}
h -t 1.332264 -s 0 -d 6 -p tcp -e 1040 -c 0 -i 31 -a 0 -x {0.0 5.0 10 ------- null}
r -t 1.340584 -s 6 -d 0 -p ack -e 40 -c 0 -i 22 -a 0 -x {5.0 0.0 5 ------- null}
h -t 1.340584 -s 0 -d 6 -p tcp -e 1040 -c 0 -i 32 -a 0 -x {0.0 5.0 11 ------- null}
h -t 1.340584 -s 0 -d 6 -p tcp -e 1040 -c 0 -i 33 -a 0 -x {0.0 5.0 12 ------- null}
r -t 1.348904 -s 6 -d 0 -p ack -e 40 -c 0 -i 23 -a 0 -x {5.0 0.0 6 ------- null}
h -t 1.348904 -s 0 -d 6 -p tcp -e 1040 -c 0 -i 34 -a 0 -x {0.0 5.0 13 ------- null}
h -t 1.348904 -s 0 -d 6 -p tcp -e 1040 -c 0 -i 35 -a 0 -x {0.0 5.0 14 ------- null}
r -t 1.400024 -s 6 -d 2 -p ack -e 40 -c 0 -i 24 -a 0 -x {3.0 2.0 3 ------- null}
h -t 1.400024 -s 2 -d 6 -p tcp -e 1040 -c 0 -i 36 -a 0 -x {2.0 3.0 7 ------- null}
h -t 1.400024 -s 2 -d 6 -p tcp -e 1040 -c 0 -i 37 -a 0 -x {2.0 3.0 8 ------- null}
r -t 1.40444 -s 6 -d 2 -p ack -e 40 -c 0 -i 25 -a 0 -x {3.0 2.0 4 ------- null}
h -t 1.40444 -s 2 -d 6 -p tcp -e 1040 -c 0 -i 38 -a 0 -x {2.0 3.0 9 ------- null}
h -t 1.40444 -s 2 -d 6 -p tcp -e 1040 -c 0 -i 39 -a 0 -x {2.0 3.0 10 ------- null}
r -t 1.408856 -s 6 -d 2 -p ack -e 40 -c 0 -i 26 -a 0 -x {3.0 2.0 5 ------- null}
h -t 1.408856 -s 2 -d 6 -p tcp -e 1040 -c 0 -i 40 -a 0 -x {2.0 3.0 11 ------- null}
h -t 1.408856 -s 2 -d 6 -p tcp -e 1040 -c 0 -i 41 -a 0 -x {2.0 3.0 12 ------- null}
r -t 1.413272 -s 6 -d 2 -p ack -e 40 -c 0 -i 27 -a 0 -x {3.0 2.0 6 ------- null}
h -t 1.413272 -s 2 -d 6 -p tcp -e 1040 -c 0 -i 42 -a 0 -x {2.0 3.0 13 ------- null}
h -t 1.413272 -s 2 -d 6 -p tcp -e 1040 -c 0 -i 43 -a 0 -x {2.0 3.0 14 ------- null}
+ -t 1.423944 -s 0 -d 6 -p tcp -e 1040 -c 0 -i 28 -a 0 -x {0.0 5.0 7 ------- null}
- -t 1.423944 -s 0 -d 6 -p tcp -e 1040 -c 0 -i 28 -a 0 -x {0.0 5.0 7 ------- null}
h -t 1.423944 -s 0 -d 6 -p tcp -e 1040 -c 0 -i 28 -a 0 -x {0.0 5.0 -1 ------- null}
+ -t 1.423944 -s 0 -d 6 -p tcp -e 1040 -c 0 -i 29 -a 0 -x {0.0 5.0 8 ------- null}
d -t 1.423948 -s 3 -d 6 -p tcp -e 1040 -c 0 -i 28 -a 0 -x {0.0 5.0 7 ------- null}
d -t 1.423948 -s 2 -d 6 -p tcp -e 1040 -c 0 -i 28 -a 0 -x {0.0 5.0 7 ------- null}
d -t 1.423948 -s 1 -d 6 -p tcp -e 1040 -c 0 -i 28 -a 0 -x {0.0 5.0 7 ------- null}
- -t 1.42836 -s 0 -d 6 -p tcp -e 1040 -c 0 -i 29 -a 0 -x {0.0 5.0 8 ------- null}
h -t 1.42836 -s 0 -d 6 -p tcp -e 1040 -c 0 -i 29 -a 0 -x {0.0 5.0 -1 ------- null}
d -t 1.428364 -s 3 -d 6 -p tcp -e 1040 -c 0 -i 29 -a 0 -x {0.0 5.0 8 ------- null}
d -t 1.428364 -s 2 -d 6 -p tcp -e 1040 -c 0 -i 29 -a 0 -x {0.0 5.0 8 ------- null}
d -t 1.428364 -s 1 -d 6 -p tcp -e 1040 -c 0 -i 29 -a 0 -x {0.0 5.0 8 ------- null}
+ -t 1.432264 -s 0 -d 6 -p tcp -e 1040 -c 0 -i 30 -a 0 -x {0.0 5.0 9 ------- null}
+ -t 1.432264 -s 0 -d 6 -p tcp -e 1040 -c 0 -i 31 -a 0 -x {0.0 5.0 10 ------- null}
- -t 1.432776 -s 0 -d 6 -p tcp -e 1040 -c 0 -i 30 -a 0 -x {0.0 5.0 9 ------- null}
h -t 1.432776 -s 0 -d 6 -p tcp -e 1040 -c 0 -i 30 -a 0 -x {0.0 5.0 -1 ------- null}
d -t 1.43278 -s 3 -d 6 -p tcp -e 1040 -c 0 -i 30 -a 0 -x {0.0 5.0 9 ------- null}
d -t 1.43278 -s 2 -d 6 -p tcp -e 1040 -c 0 -i 30 -a 0 -x {0.0 5.0 9 ------- null}
d -t 1.43278 -s 1 -d 6 -p tcp -e 1040 -c 0 -i 30 -a 0 -x {0.0 5.0 9 ------- null}
- -t 1.437192 -s 0 -d 6 -p tcp -e 1040 -c 0 -i 31 -a 0 -x {0.0 5.0 10 ------- null}
h -t 1.437192 -s 0 -d 6 -p tcp -e 1040 -c 0 -i 31 -a 0 -x {0.0 5.0 -1 ------- null}
d -t 1.437196 -s 3 -d 6 -p tcp -e 1040 -c 0 -i 31 -a 0 -x {0.0 5.0 10 ------- null}
d -t 1.437196 -s 2 -d 6 -p tcp -e 1040 -c 0 -i 31 -a 0 -x {0.0 5.0 10 ------- null}
d -t 1.437196 -s 1 -d 6 -p tcp -e 1040 -c 0 -i 31 -a 0 -x {0.0 5.0 10 ------- null}
+ -t 1.440584 -s 0 -d 6 -p tcp -e 1040 -c 0 -i 32 -a 0 -x {0.0 5.0 11 ------- null}
+ -t 1.440584 -s 0 -d 6 -p tcp -e 1040 -c 0 -i 33 -a 0 -x {0.0 5.0 12 ------- null}
- -t 1.441608 -s 0 -d 6 -p tcp -e 1040 -c 0 -i 32 -a 0 -x {0.0 5.0 11 ------- null}
h -t 1.441608 -s 0 -d 6 -p tcp -e 1040 -c 0 -i 32 -a 0 -x {0.0 5.0 -1 ------- null}
d -t 1.441612 -s 3 -d 6 -p tcp -e 1040 -c 0 -i 32 -a 0 -x {0.0 5.0 11 ------- null}
d -t 1.441612 -s 2 -d 6 -p tcp -e 1040 -c 0 -i 32 -a 0 -x {0.0 5.0 11 ------- null}
d -t 1.441612 -s 1 -d 6 -p tcp -e 1040 -c 0 -i 32 -a 0 -x {0.0 5.0 11 ------- null}
- -t 1.446024 -s 0 -d 6 -p tcp -e 1040 -c 0 -i 33 -a 0 -x {0.0 5.0 12 ------- null}
h -t 1.446024 -s 0 -d 6 -p tcp -e 1040 -c 0 -i 33 -a 0 -x {0.0 5.0 -1 ------- null}
d -t 1.446028 -s 3 -d 6 -p tcp -e 1040 -c 0 -i 33 -a 0 -x {0.0 5.0 12 ------- null}
d -t 1.446028 -s 2 -d 6 -p tcp -e 1040 -c 0 -i 33 -a 0 -x {0.0 5.0 12 ------- null}
d -t 1.446028 -s 1 -d 6 -p tcp -e 1040 -c 0 -i 33 -a 0 -x {0.0 5.0 12 ------- null}
+ -t 1.448904 -s 0 -d 6 -p tcp -e 1040 -c 0 -i 34 -a 0 -x {0.0 5.0 13 ------- null}
+ -t 1.448904 -s 0 -d 6 -p tcp -e 1040 -c 0 -i 35 -a 0 -x {0.0 5.0 14 ------- null}
- -t 1.45044 -s 0 -d 6 -p tcp -e 1040 -c 0 -i 34 -a 0 -x {0.0 5.0 13 ------- null}
h -t 1.45044 -s 0 -d 6 -p tcp -e 1040 -c 0 -i 34 -a 0 -x {0.0 5.0 -1 ------- null}
d -t 1.450444 -s 3 -d 6 -p tcp -e 1040 -c 0 -i 34 -a 0 -x {0.0 5.0 13 ------- null}
d -t 1.450444 -s 2 -d 6 -p tcp -e 1040 -c 0 -i 34 -a 0 -x {0.0 5.0 13 ------- null}
d -t 1.450444 -s 1 -d 6 -p tcp -e 1040 -c 0 -i 34 -a 0 -x {0.0 5.0 13 ------- null}
- -t 1.454856 -s 0 -d 6 -p tcp -e 1040 -c 0 -i 35 -a 0 -x {0.0 5.0 14 ------- null}
h -t 1.454856 -s 0 -d 6 -p tcp -e 1040 -c 0 -i 35 -a 0 -x {0.0 5.0 -1 ------- null}
d -t 1.45486 -s 3 -d 6 -p tcp -e 1040 -c 0 -i 35 -a 0 -x {0.0 5.0 14 ------- null}
d -t 1.45486 -s 2 -d 6 -p tcp -e 1040 -c 0 -i 35 -a 0 -x {0.0 5.0 14 ------- null}
d -t 1.45486 -s 1 -d 6 -p tcp -e 1040 -c 0 -i 35 -a 0 -x {0.0 5.0 14 ------- null}
+ -t 1.500024 -s 2 -d 6 -p tcp -e 1040 -c 0 -i 36 -a 0 -x {2.0 3.0 7 ------- null}
- -t 1.500024 -s 2 -d 6 -p tcp -e 1040 -c 0 -i 36 -a 0 -x {2.0 3.0 7 ------- null}
h -t 1.500024 -s 2 -d 6 -p tcp -e 1040 -c 0 -i 36 -a 0 -x {2.0 3.0 -1 ------- null}
+ -t 1.500024 -s 2 -d 6 -p tcp -e 1040 -c 0 -i 37 -a 0 -x {2.0 3.0 8 ------- null}
d -t 1.500028 -s 4 -d 6 -p tcp -e 1040 -c 0 -i 36 -a 0 -x {2.0 3.0 7 ------- null}
d -t 1.500028 -s 1 -d 6 -p tcp -e 1040 -c 0 -i 36 -a 0 -x {2.0 3.0 7 ------- null}
d -t 1.500028 -s 0 -d 6 -p tcp -e 1040 -c 0 -i 36 -a 0 -x {2.0 3.0 7 ------- null}
+ -t 1.50444 -s 2 -d 6 -p tcp -e 1040 -c 0 -i 38 -a 0 -x {2.0 3.0 9 ------- null}
+ -t 1.50444 -s 2 -d 6 -p tcp -e 1040 -c 0 -i 39 -a 0 -x {2.0 3.0 10 ------- null}
- -t 1.50444 -s 2 -d 6 -p tcp -e 1040 -c 0 -i 37 -a 0 -x {2.0 3.0 8 ------- null}
h -t 1.50444 -s 2 -d 6 -p tcp -e 1040 -c 0 -i 37 -a 0 -x {2.0 3.0 -1 ------- null}
d -t 1.504444 -s 4 -d 6 -p tcp -e 1040 -c 0 -i 37 -a 0 -x {2.0 3.0 8 ------- null}
d -t 1.504444 -s 1 -d 6 -p tcp -e 1040 -c 0 -i 37 -a 0 -x {2.0 3.0 8 ------- null}