h 0.1 0 6 tcp 40 ------- 0 0.0 5.0 0 0
h 0.2 2 6 tcp 40 ------- 0 2.0 3.0 0 1
+ 0.2 0 6 tcp 40 ------- 0 0.0 5.0 0 0
- 0.2 0 6 tcp 40 ------- 0 0.0 5.0 0 0
d 0.200004 3 6 tcp 40 ------- 0 0.0 5.0 0 0
d 0.200004 2 6 tcp 40 ------- 0 0.0 5.0 0 0
d 0.200004 1 6 tcp 40 ------- 0 0.0 5.0 0 0
+ 0.3 2 6 tcp 40 ------- 0 2.0 3.0 0 1
- 0.3 2 6 tcp 40 ------- 0 2.0 3.0 0 1
r 0.300004 6 4 tcp 40 ------- 0 0.0 5.0 0 0
+ 0.300004 4 5 tcp 40 ------- 0 0.0 5.0 0 0
- 0.300004 4 5 tcp 40 ------- 0 0.0 5.0 0 0
d 0.300004 4 6 tcp 40 ------- 0 2.0 3.0 0 1
d 0.300004 1 6 tcp 40 ------- 0 2.0 3.0 0 1
d 0.300004 0 6 tcp 40 ------- 0 2.0 3.0 0 1
r 0.301324 4 5 tcp 40 ------- 0 0.0 5.0 0 0
+ 0.301324 5 4 ack 40 ------- 0 5.0 0.0 0 2
- 0.301324 5 4 ack 40 ------- 0 5.0 0.0 0 2
r 0.302644 5 4 ack 40 ------- 0 5.0 0.0 0 2
h 0.302644 4 6 ack 40 ------- 0 5.0 0.0 0 2
r 0.400004 6 3 tcp 40 ------- 0 2.0 3.0 0 1
h 0.400004 3 6 ack 40 ------- 0 3.0 2.0 0 3
+ 0.402644 4 6 ack 40 ------- 0 5.0 0.0 0 2
- 0.402644 4 6 ack 40 ------- 0 5.0 0.0 0 2
d 0.402648 3 6 ack 40 ------- 0 5.0 0.0 0 2
d 0.402648 2 6 ack 40 ------- 0 5.0 0.0 0 2
d 0.402648 1 6 ack 40 ------- 0 5.0 0.0 0 2
+ 0.500004 3 6 ack 40 ------- 0 3.0 2.0 0 3
- 0.500004 3 6 ack 40 ------- 0 3.0 2.0 0 3
d 0.500008 4 6 ack 40 ------- 0 3.0 2.0 0 3
d 0.500008 1 6 ack 40 ------- 0 3.0 2.0 0 3
d 0.500008 0 6 ack 40 ------- 0 3.0 2.0 0 3
r 0.502648 6 0 ack 40 ------- 0 5.0 0.0 0 2
h 0.502648 0 6 tcp 1040 ------- 0 0.0 5.0 1 4
h 0.502648 0 6 tcp 1040 ------- 0 0.0 5.0 2 5
r 0.600008 6 2 ack 40 ------- 0 3.0 2.0 0 3
h 0.600008 2 6 tcp 1040 ------- 0 2.0 3.0 1 6
h 0.600008 2 6 tcp 1040 ------- 0 2.0 3.0 2 7
+ 0.602648 0 6 tcp 1040 ------- 0 0.0 5.0 1 4
- 0.602648 0 6 tcp 1040 ------- 0 0.0 5.0 1 4
+ 0.602648 0 6 tcp 1040 ------- 0 0.0 5.0 2 5
d 0.602652 3 6 tcp 1040 ------- 0 0.0 5.0 1 4
d 0.602652 2 6 tcp 1040 ------- 0 0.0 5.0 1 4
d 0.602652 1 6 tcp 1040 ------- 0 0.0 5.0 1 4
- 0.607064 0 6 tcp 1040 ------- 0 0.0 5.0 2 5
d 0.607068 3 6 tcp 1040 ------- 0 0.0 5.0 2 5
d 0.607068 2 6 tcp 1040 ------- 0 0.0 5.0 2 5
d 0.607068 1 6 tcp 1040 ------- 0 0.0 5.0 2 5
+ 0.700008 2 6 tcp 1040 ------- 0 2.0 3.0 1 6
- 0.700008 2 6 tcp 1040 ------- 0 2.0 3.0 1 6
+ 0.700008 2 6 tcp 1040 ------- 0 2.0 3.0 2 7
d 0.700012 4 6 tcp 1040 ------- 0 2.0 3.0 1 6
d 0.700012 1 6 tcp 1040 ------- 0 2.0 3.0 1 6
d 0.700012 0 6 tcp 1040 ------- 0 2.0 3.0 1 6
r 0.702652 6 4 tcp 1040 ------- 0 0.0 5.0 1 4
+ 0.702652 4 5 tcp 1040 ------- 0 0.0 5.0 1 4
- 0.702652 4 5 tcp 1040 ------- 0 0.0 5.0 1 4
- 0.704424 2 6 tcp 1040 ------- 0 2.0 3.0 2 7
d 0.704428 4 6 tcp 1040 ------- 0 2.0 3.0 2 7
d 0.704428 1 6 tcp 1040 ------- 0 2.0 3.0 2 7
d 0.704428 0 6 tcp 1040 ------- 0 2.0 3.0 2 7
r 0.707068 6 4 tcp 1040 ------- 0 0.0 5.0 2 5
+ 0.707068 4 5 tcp 1040 ------- 0 0.0 5.0 2 5
- 0.710972 4 5 tcp 1040 ------- 0 0.0 5.0 2 5
r 0.711972 4 5 tcp 1040 ------- 0 0.0 5.0 1 4
+ 0.711972 5 4 ack 40 ------- 0 5.0 0.0 1 8
- 0.711972 5 4 ack 40 ------- 0 5.0 0.0 1 8
r 0.713292 5 4 ack 40 ------- 0 5.0 0.0 1 8
h 0.713292 4 6 ack 40 ------- 0 5.0 0.0 1 8
r 0.720292 4 5 tcp 1040 ------- 0 0.0 5.0 2 5
+ 0.720292 5 4 ack 40 ------- 0 5.0 0.0 2 9
- 0.720292 5 4 ack 40 ------- 0 5.0 0.0 2 9
r 0.721612 5 4 ack 40 ------- 0 5.0 0.0 2 9
h 0.721612 4 6 ack 40 ------- 0 5.0 0.0 2 9
r 0.800012 6 3 tcp 1040 ------- 0 2.0 3.0 1 6
h 0.800012 3 6 ack 40 ------- 0 3.0 2.0 1 10
r 0.804428 6 3 tcp 1040 ------- 0 2.0 3.0 2 7
h 0.804428 3 6 ack 40 ------- 0 3.0 2.0 2 11
+ 0.813292 4 6 ack 40 ------- 0 5.0 0.0 1 8
- 0.813292 4 6 ack 40 ------- 0 5.0 0.0 1 8
d 0.813296 3 6 ack 40 ------- 0 5.0 0.0 1 8
d 0.813296 2 6 ack 40 ------- 0 5.0 0.0 1 8
d 0.813296 1 6 ack 40 ------- 0 5.0 0.0 1 8
+ 0.821612 4 6 ack 40 ------- 0 5.0 0.0 2 9
- 0.821612 4 6 ack 40 ------- 0 5.0 0.0 2 9
d 0.821616 3 6 ack 40 ------- 0 5.0 0.0 2 9
d 0.821616 2 6 ack 40 ------- 0 5.0 0.0 2 9
d 0.821616 1 6 ack 40 ------- 0 5.0 0.0 2 9
+ 0.900012 3 6 ack 40 ------- 0 3.0 2.0 1 10
- 0.900012 3 6 ack 40 ------- 0 3.0 2.0 1 10
d 0.900016 4 6 ack 40 ------- 0 3.0 2.0 1 10
d 0.900016 1 6 ack 40 ------- 0 3.0 2.0 1 10
d 0.900016 0 6 ack 40 ------- 0 3.0 2.0 1 10
+ 0.904428 3 6 ack 40 ------- 0 3.0 2.0 2 11
- 0.904428 3 6 ack 40 ------- 0 3.0 2.0 2 11
d 0.904432 4 6 ack 40 ------- 0 3.0 2.0 2 11
d 0.904432 1 6 ack 40 ------- 0 3.0 2.0 2 11
d 0.904432 0 6 ack 40 ------- 0 3.0 2.0 2 11
r 0.913296 6 0 ack 40 ------- 0 5.0 0.0 1 8
h 0.913296 0 6 tcp 1040 ------- 0 0.0 5.0 3 12
h 0.913296 0 6 tcp 1040 ------- 0 0.0 5.0 4 13
r 0.921616 6 0 ack 40 ------- 0 5.0 0.0 2 9
h 0.921616 0 6 tcp 1040 ------- 0 0.0 5.0 5 14
h 0.921616 0 6 tcp 1040 ------- 0 0.0 5.0 6 15
r 1.000016 6 2 ack 40 ------- 0 3.0 2.0 1 10
h 1.000016 2 6 tcp 1040 ------- 0 2.0 3.0 3 16
h 1.000016 2 6 tcp 1040 ------- 0 2.0 3.0 4 17
r 1.004432 6 2 ack 40 ------- 0 3.0 2.0 2 11
h 1.004432 2 6 tcp 1040 ------- 0 2.0 3.0 5 18
h 1.004432 2 6 tcp 1040 ------- 0 2.0 3.0 6 19
+ 1.013296 0 6 tcp 1040 ------- 0 0.0 5.0 3 12
- 1.013296 0 6 tcp 1040 ------- 0 0.0 5.0 3 12
+ 1.013296 0 6 tcp 1040 ------- 0 0.0 5.0 4 13
d 1.0133 3 6 tcp 1040 ------- 0 0.0 5.0 3 12
d 1.0133 2 6 tcp 1040 ------- 0 0.0 5.0 3 12
d 1.0133 1 6 tcp 1040 ------- 0 0.0 5.0 3 12
- 1.017712 0 6 tcp 1040 ------- 0 0.0 5.0 4 13
d 1.017716 3 6 tcp 1040 ------- 0 0.0 5.0 4 13
d 1.017716 2 6 tcp 1040 ------- 0 0.0 5.0 4 13
d 1.017716 1 6 tcp 1040 ------- 0 0.0 5.0 4 13
+ 1.021616 0 6 tcp 1040 ------- 0 0.0 5.0 5 14
+ 1.021616 0 6 tcp 1040 ------- 0 0.0 5.0 6 15
- 1.022128 0 6 tcp 1040 ------- 0 0.0 5.0 5 14
d 1.022132 3 6 tcp 1040 ------- 0 0.0 5.0 5 14
d 1.022132 2 6 tcp 1040 ------- 0 0.0 5.0 5 14
d 1.022132 1 6 tcp 1040 ------- 0 0.0 5.0 5 14
- 1.026544 0 6 tcp 1040 ------- 0 0.0 5.0 6 15
d 1.026548 3 6 tcp 1040 ------- 0 0.0 5.0 6 15
d 1.026548 2 6 tcp 1040 ------- 0 0.0 5.0 6 15
d 1.026548 1 6 tcp 1040 ------- 0 0.0 5.0 6 15
+ 1.100016 2 6 tcp 1040 ------- 0 2.0 3.0 3 16
- 1.100016 2 6 tcp 1040 ------- 0 2.0 3.0 3 16
+ 1.100016 2 6 tcp 1040 ------- 0 2.0 3.0 4 17
d 1.10002 4 6 tcp 1040 ------- 0 2.0 3.0 3 16
d 1.10002 1 6 tcp 1040 ------- 0 2.0 3.0 3 16
d 1.10002 0 6 tcp 1040 ------- 0 2.0 3.0 3 16
+ 1.104432 2 6 tcp 1040 ------- 0 2.0 3.0 5 18
+ 1.104432 2 6 tcp 1040 ------- 0 2.0 3.0 6 19
- 1.104432 2 6 tcp 1040 ------- 0 2.0 3.0 4 17
d 1.104436 4 6 tcp 1040 ------- 0 2.0 3.0 4 17
d 1.104436 1 6 tcp 1040 ------- 0 2.0 3.0 4 17
d 1.104436 0 6 tcp 1040 ------- 0 2.0 3.0 4 17
- 1.108848 2 6 tcp 1040 ------- 0 2.0 3.0 5 18
d 1.108852 4 6 tcp 1040 ------- 0 2.0 3.0 5 18
d 1.108852 1 6 tcp 1040 ------- 0 2.0 3.0 5 18
d 1.108852 0 6 tcp 1040 ------- 0 2.0 3.0 5 18
- 1.113264 2 6 tcp 1040 ------- 0 2.0 3.0 6 19
d 1.113268 4 6 tcp 1040 ------- 0 2.0 3.0 6 19
d 1.113268 1 6 tcp 1040 ------- 0 2.0 3.0 6 19
d 1.113268 0 6 tcp 1040 ------- 0 2.0 3.0 6 19
r 1.1133 6 4 tcp 1040 ------- 0 0.0 5.0 3 12
+ 1.1133 4 5 tcp 1040 ------- 0 0.0 5.0 3 12
- 1.1133 4 5 tcp 1040 ------- 0 0.0 5.0 3 12
r 1.117716 6 4 tcp 1040 ------- 0 0.0 5.0 4 13
+ 1.117716 4 5 tcp 1040 ------- 0 0.0 5.0 4 13
- 1.12162 4 5 tcp 1040 ------- 0 0.0 5.0 4 13
r 1.122132 6 4 tcp 1040 ------- 0 0.0 5.0 5 14
+ 1.122132 4 5 tcp 1040 ------- 0 0.0 5.0 5 14
r 1.12262 4 5 tcp 1040 ------- 0 0.0 5.0 3 12
+ 1.12262 5 4 ack 40 ------- 0 5.0 0.0 3 20
- 1.12262 5 4 ack 40 ------- 0 5.0 0.0 3 20
r 1.12394 5 4 ack 40 ------- 0 5.0 0.0 3 20
h 1.12394 4 6 ack 40 ------- 0 5.0 0.0 3 20
r 1.126548 6 4 tcp 1040 ------- 0 0.0 5.0 6 15
+ 1.126548 4 5 tcp 1040 ------- 0 0.0 5.0 6 15
- 1.12994 4 5 tcp 1040 ------- 0 0.0 5.0 5 14
r 1.13094 4 5 tcp 1040 ------- 0 0.0 5.0 4 13
+ 1.13094 5 4 ack 40 ------- 0 5.0 0.0 4 21
- 1.13094 5 4 ack 40 ------- 0 5.0 0.0 4 21
r 1.13226 5 4 ack 40 ------- 0 5.0 0.0 4 21
h 1.13226 4 6 ack 40 ------- 0 5.0 0.0 4 21
- 1.13826 4 5 tcp 1040 ------- 0 0.0 5.0 6 15
r 1.13926 4 5 tcp 1040 ------- 0 0.0 5.0 5 14
+ 1.13926 5 4 ack 40 ------- 0 5.0 0.0 5 22
- 1.13926 5 4 ack 40 ------- 0 5.0 0.0 5 22
r 1.14058 5 4 ack 40 ------- 0 5.0 0.0 5 22
h 1.14058 4 6 ack 40 ------- 0 5.0 0.0 5 22
r 1.14758 4 5 tcp 1040 ------- 0 0.0 5.0 6 15
+ 1.14758 5 4 ack 40 ------- 0 5.0 0.0 6 23
- 1.14758 5 4 ack 40 ------- 0 5.0 0.0 6 23
r 1.1489 5 4 ack 40 ------- 0 5.0 0.0 6 23
h 1.1489 4 6 ack 40 ------- 0 5.0 0.0 6 23
r 1.20002 6 3 tcp 1040 ------- 0 2.0 3.0 3 16
h 1.20002 3 6 ack 40 ------- 0 3.0 2.0 3 24
r 1.204436 6 3 tcp 1040 ------- 0 2.0 3.0 4 17
h 1.204436 3 6 ack 40 ------- 0 3.0 2.0 4 25
r 1.208852 6 3 tcp 1040 ------- 0 2.0 3.0 5 18
h 1.208852 3 6 ack 40 ------- 0 3.0 2.0 5 26
r 1.213268 6 3 tcp 1040 ------- 0 2.0 3.0 6 19
h 1.213268 3 6 ack 40 ------- 0 3.0 2.0 6 27
+ 1.22394 4 6 ack 40 ------- 0 5.0 0.0 3 20
- 1.22394 4 6 ack 40 ------- 0 5.0 0.0 3 20
d 1.223944 3 6 ack 40 ------- 0 5.0 0.0 3 20
d 1.223944 2 6 ack 40 ------- 0 5.0 0.0 3 20
d 1.223944 1 6 ack 40 ------- 0 5.0 0.0 3 20
+ 1.23226 4 6 ack 40 ------- 0 5.0 0.0 4 21
- 1.23226 4 6 ack 40 ------- 0 5.0 0.0 4 21
d 1.232264 3 6 ack 40 ------- 0 5.0 0.0 4 21
d 1.232264 2 6 ack 40 ------- 0 5.0 0.0 4 21
d 1.232264 1 6 ack 40 ------- 0 5.0 0.0 4 21
+ 1.24058 4 6 ack 40 ------- 0 5.0 0.0 5 22
- 1.24058 4 6 ack 40 ------- 0 5.0 0.0 5 22
d 1.240584 3 6 ack 40 ------- 0 5.0 0.0 5 22
d 1.240584 2 6 ack 40 ------- 0 5.0 0.0 5 22
d 1.240584 1 6 ack 40 ------- 0 5.0 0.0 5 22
+ 1.2489 4 6 ack 40 ------- 0 5.0 0.0 6 23
- 1.2489 4 6 ack 40 ------- 0 5.0 0.0 6 23
d 1.248904 3 6 ack 40 ------- 0 5.0 0.0 6 23
d 1.248904 2 6 ack 40 ------- 0 5.0 0.0 6 23
d 1.248904 1 6 ack 40 ------- 0 5.0 0.0 6 23
+ 1.30002 3 6 ack 40 ------- 0 3.0 2.0 3 24
- 1.30002 3 6 ack 40 ------- 0 3.0 2.0 3 24
d 1.300024 4 6 ack 40 ------- 0 3.0 2.0 3 24
d 1.300024 1 6 ack 40 ------- 0 3.0 2.0 3 24
d 1.300024 0 6 ack 40 ------- 0 3.0 2.0 3 24
+ 1.304436 3 6 ack 40 ------- 0 3.0 2.0 4 25
- 1.304436 3 6 ack 40 ------- 0 3.0 2.0 4 25
d 1.30444 4 6 ack 40 ------- 0 3.0 2.0 4 25
d 1.30444 1 6 ack 40 ------- 0 3.0 2.0 4 25
d 1.30444 0 6 ack 40 ------- 0 3.0 2.0 4 25
+ 1.308852 3 6 ack 40 ------- 0 3.0 2.0 5 26
- 1.308852 3 6 ack 40 ------- 0 3.0 2.0 5 26
d 1.308856 4 6 ack 40 ------- 0 3.0 2.0 5 26
d 1.308856 1 6 ack 40 ------- 0 3.0 2.0 5 26
d 1.308856 0 6 ack 40 ------- 0 3.0 2.0 5 26
+ 1.313268 3 6 ack 40 ------- 0 3.0 2.0 6 27
- 1.313268 3 6 ack 40 ------- 0 3.0 2.0 6 27
d 1.313272 4 6 ack 40 ------- 0 3.0 2.0 6 27
d 1.313272 1 6 ack 40 ------- 0 3.0 2.0 6 27
d 1.313272 0 6 ack 40 ------- 0 3.0 2.0 6 27
r 1.323944 6 0 ack 40 ------- 0 5.0 0.0 3 20
h 1.323944 0 6 tcp 1040 ------- 0 0.0 5.0 7 28
h 1.323944 0 6 tcp 1040 ------- 0 0.0 5.0 8 29
r 1.332264 6 0 ack 40 ------- 0 5.0 0.0 4 21
h 1.332264 0 6 tcp 1040 ------- 0 0.0 5.0 9 30
h 1.332264 0 6 tcp 1040 ------- 0 0.0 5.0 10 31
r 1.340584 6 0 ack 40 ------- 0 5.0 0.0 5 22
h 1.340584 0 6 tcp 1040 ------- 0 0.0 5.0 11 32
h 1.340584 0 6 tcp 1040 ------- 0 0.0 5.0 12 33
r 1.348904 6 0 ack 40 ------- 0 5.0 0.0 6 23
h 1.348904 0 6 tcp 1040 ------- 0 0.0 5.0 13 34
h 1.348904 0 6 tcp 1040 ------- 0 0.0 5.0 14 35
r 1.400024 6 2 ack 40 ------- 0 3.0 2.0 3 24
h 1.400024 2 6 tcp 1040 ------- 0 2.0 3.0 7 36
h 1.400024 2 6 tcp 1040 ------- 0 2.0 3.0 8 37
r 1.40444 6 2 ack 40 ------- 0 3.0 2.0 4 25
h 1.40444 2 6 tcp 1040 ------- 0 2.0 3.0 9 38
h 1.40444 2 6 tcp 1040 ------- 0 2.0 3.0 10 39
r 1.408856 6 2 ack 40 ------- 0 3.0 2.0 5 26
h 1.408856 2 6 tcp 1040 ------- 0 2.0 3.0 11 40
h 1.408856 2 6 tcp 1040 ------- 0 2.0 3.0 12 41
r 1.413272 6 2 ack 40 ------- 0 3.0 2.0 6 27
h 1.413272 2 6 tcp 1040 ------- 0 2.0 3.0 13 42
h 1.413272 2 6 tcp 1040 ------- 0 2.0 3.0 14 43
+ 1.423944 0 6 tcp 1040 ------- 0 0.0 5.0 7 28
- 1.423944 0 6 tcp 1040 ------- 0 0.0 5.0 7 28
+ 1.423944 0 6 tcp 1040 ------- 0 0.0 5.0 8 29
d 1.423948 3 6 tcp 1040 ------- 0 0.0 5.0 7 28
d 1.423948 2 6 tcp 1040 ------- 0 0.0 5.0 7 28
d 1.423948 1 6 tcp 1040 ------- 0 0.0 5.0 7 28
- 1.42836 0 6 tcp 1040 ------- 0 0.0 5.0 8 29
d 1.428364 3 6 tcp 1040 ------- 0 0.0 5.0 8 29
d 1.428364 2 6 tcp 1040 ------- 0 0.0 5.0 8 29
d 1.428364 1 6 tcp 1040 ------- 0 0.0 5.0 8 29
+ 1.432264 0 6 tcp 1040 ------- 0 0.0 5.0 9 30
+ 1.432264 0 6 tcp 1040 ------- 0 0.0 5.0 10 31
- 1.432776 0 6 tcp 1040 ------- 0 0.0 5.0 9 30
d 1.43278 3 6 tcp 1040 ------- 0 0.0 5.0 9 30
d 1.43278 2 6 tcp 1040 ------- 0 0.0 5.0 9 30
d 1.43278 1 6 tcp 1040 ------- 0 0.0 5.0 9 30
- 1.437192 0 6 tcp 1040 ------- 0 0.0 5.0 10 31
d 1.437196 3 6 tcp 1040 ------- 0 0.0 5.0 10 31
d 1.437196 2 6 tcp 1040 ------- 0 0.0 5.0 10 31
d 1.437196 1 6 tcp 1040 ------- 0 0.0 5.0 10 31
+ 1.440584 0 6 tcp 1040 ------- 0 0.0 5.0 11 32
+ 1.440584 0 6 tcp 1040 ------- 0 0.0 5.0 12 33
- 1.441608 0 6 tcp 1040 ------- 0 0.0 5.0 11 32
d 1.441612 3 6 tcp 1040 ------- 0 0.0 5.0 11 32
d 1.441612 2 6 tcp 1040 ------- 0 0.0 5.0 11 32
d 1.441612 1 6 tcp 1040 ------- 0 0.0 5.0 11 32
- 1.446024 0 6 tcp 1040 ------- 0 0.0 5.0 12 33
d 1.446028 3 6 tcp 1040 ------- 0 0.0 5.0 12 33
d 1.446028 2 6 tcp 1040 ------- 0 0.0 5.0 12 33
d 1.446028 1 6 tcp 1040 ------- 0 0.0 5.0 12 33
+ 1.448904 0 6 tcp 1040 ------- 0 0.0 5.0 13 34
+ 1.448904 0 6 tcp 1040 ------- 0 0.0 5.0 14 35
- 1.45044 0 6 tcp 1040 ------- 0 0.0 5.0 13 34
d 1.450444 3 6 tcp 1040 ------- 0 0.0 5.0 13 34
d 1.450444 2 6 tcp 1040 ------- 0 0.0 5.0 13 34
d 1.450444 1 6 tcp 1040 ------- 0 0.0 5.0 13 34
- 1.454856 0 6 tcp 1040 ------- 0 0.0 5.0 14 35
d 1.45486 3 6 tcp 1040 ------- 0 0.0 5.0 14 35
d 1.45486 2 6 tcp 1040 ------- 0 0.0 5.0 14 35
d 1.45486 1 6 tcp 1040 ------- 0 0.0 5.0 14 35
+ 1.500024 2 6 tcp 1040 ------- 0 2.0 3.0 7 36
- 1.500024 2 6 tcp 1040 ------- 0 2.0 3.0 7 36
+ 1.500024 2 6 tcp 1040 ------- 0 2.0 3.0 8 37
d 1.500028 4 6 tcp 1040 ------- 0 2.0 3.0 7 36
d 1.500028 1 6 tcp 1040 ------- 0 2.0 3.0 7 36
d 1.500028 0 6 tcp 1040 ------- 0 2.0 3.0 7 36
+ 1.50444 2 6 tcp 1040 ------- 0 2.0 3.0 9 38
+ 1.50444 2 6 tcp 1040 ------- 0 2.0 3.0 10 39
- 1.50444 2 6 tcp 1040 ------- 0 2.0 3.0 8 37
d 1.504444 4 6 tcp 1040 ------- 0 2.0 3.0 8 37
d 1.504444 1 6 tcp 1040 ------- 0 2.0 3.0 8 37
d 1.504444 0 6 tcp 1040 ------- 0 2.0 3.0 8 37
+ 1.508856 2 6 tcp 1040 ------- 0 2.0 3.0 11 40
+ 1.508856 2 6 tcp 1040 ------- 0 2.0 3.0 12 41
- 1.508856 2 6 tcp 1040 ------- 0 2.0 3.0 9 38
d 1.50886 4 6 tcp 1040 ------- 0 2.0 3.0 9 38
d 1.50886 1 6 tcp 1040 ------- 0 2.0 3.0 9 38
d 1.50886 0 6 tcp 1040 ------- 0 2.0 3.0 9 38
+ 1.513272 2 6 tcp 1040 ------- 0 2.0 3.0 13 42
+ 1.513272 2 6 tcp 1040 ------- 0 2.0 3.0 14 43
- 1.513272 2 6 tcp 1040 ------- 0 2.0 3.0 10 39
d 1.513276 4 6 tcp 1040 ------- 0 2.0 3.0 10 39
d 1.513276 1 6 tcp 1040 ------- 0 2.0 3.0 10 39
d 1.513276 0 6 tcp 1040 ------- 0 2.0 3.0 10 39
- 1.517688 2 6 tcp 1040 ------- 0 2.0 3.0 11 40
d 1.517692 4 6 tcp 1040 ------- 0 2.0 3.0 11 40
d 1.517692 1 6 tcp 1040 ------- 0 2.0 3.0 11 40
d 1.517692 0 6 tcp 1040 ------- 0 2.0 3.0 11 40
- 1.522104 2 6 tcp 1040 ------- 0 2.0 3.0 12 41
d 1.522108 4 6 tcp 1040 ------- 0 2.0 3.0 12 41
d 1.522108 1 6 tcp 1040 ------- 0 2.0 3.0 12 41
d 1.522108 0 6 tcp 1040 ------- 0 2.0 3.0 12 41
r 1.523948 6 4 tcp 1040 ------- 0 0.0 5.0 7 28
+ 1.523948 4 5 tcp 1040 ------- 0 0.0 5.0 7 28
- 1.523948 4 5 tcp 1040 ------- 0 0.0 5.0 7 28
- 1.52652 2 6 tcp 1040 ------- 0 2.0 3.0 13 42
d 1.526524 4 6 tcp 1040 ------- 0 2.0 3.0 13 42
d 1.526524 1 6 tcp 1040 ------- 0 2.0 3.0 13 42
d 1.526524 0 6 tcp 1040 ------- 0 2.0 3.0 13 42
r 1.528364 6 4 tcp 1040 ------- 0 0.0 5.0 8 29
+ 1.528364 4 5 tcp 1040 ------- 0 0.0 5.0 8 29
- 1.530936 2 6 tcp 1040 ------- 0 2.0 3.0 14 43
d 1.53094 4 6 tcp 1040 ------- 0 2.0 3.0 14 43
d 1.53094 1 6 tcp 1040 ------- 0 2.0 3.0 14 43
d 1.53094 0 6 tcp 1040 ------- 0 2.0 3.0 14 43
- 1.532268 4 5 tcp 1040 ------- 0 0.0 5.0 8 29
r 1.53278 6 4 tcp 1040 ------- 0 0.0 5.0 9 30
+ 1.53278 4 5 tcp 1040 ------- 0 0.0 5.0 9 30
r 1.533268 4 5 tcp 1040 ------- 0 0.0 5.0 7 28
+ 1.533268 5 4 ack 40 ------- 0 5.0 0.0 7 44
- 1.533268 5 4 ack 40 ------- 0 5.0 0.0 7 44
r 1.534588 5 4 ack 40 ------- 0 5.0 0.0 7 44
h 1.534588 4 6 ack 40 ------- 0 5.0 0.0 7 44
r 1.537196 6 4 tcp 1040 ------- 0 0.0 5.0 10 31
+ 1.537196 4 5 tcp 1040 ------- 0 0.0 5.0 10 31
- 1.540588 4 5 tcp 1040 ------- 0 0.0 5.0 9 30
r 1.541588 4 5 tcp 1040 ------- 0 0.0 5.0 8 29
+ 1.541588 5 4 ack 40 ------- 0 5.0 0.0 8 45
- 1.541588 5 4 ack 40 ------- 0 5.0 0.0 8 45
r 1.541612 6 4 tcp 1040 ------- 0 0.0 5.0 11 32
+ 1.541612 4 5 tcp 1040 ------- 0 0.0 5.0 11 32
r 1.542908 5 4 ack 40 ------- 0 5.0 0.0 8 45
h 1.542908 4 6 ack 40 ------- 0 5.0 0.0 8 45
r 1.546028 6 4 tcp 1040 ------- 0 0.0 5.0 12 33
+ 1.546028 4 5 tcp 1040 ------- 0 0.0 5.0 12 33
- 1.548908 4 5 tcp 1040 ------- 0 0.0 5.0 10 31
r 1.549908 4 5 tcp 1040 ------- 0 0.0 5.0 9 30
+ 1.549908 5 4 ack 40 ------- 0 5.0 0.0 9 46
- 1.549908 5 4 ack 40 ------- 0 5.0 0.0 9 46
r 1.550444 6 4 tcp 1040 ------- 0 0.0 5.0 13 34
+ 1.550444 4 5 tcp 1040 ------- 0 0.0 5.0 13 34
r 1.551228 5 4 ack 40 ------- 0 5.0 0.0 9 46
h 1.551228 4 6 ack 40 ------- 0 5.0 0.0 9 46
r 1.55486 6 4 tcp 1040 ------- 0 0.0 5.0 14 35
+ 1.55486 4 5 tcp 1040 ------- 0 0.0 5.0 14 35
- 1.557228 4 5 tcp 1040 ------- 0 0.0 5.0 11 32
r 1.558228 4 5 tcp 1040 ------- 0 0.0 5.0 10 31
+ 1.558228 5 4 ack 40 ------- 0 5.0 0.0 10 47
- 1.558228 5 4 ack 40 ------- 0 5.0 0.0 10 47
r 1.559548 5 4 ack 40 ------- 0 5.0 0.0 10 47
h 1.559548 4 6 ack 40 ------- 0 5.0 0.0 10 47
- 1.565548 4 5 tcp 1040 ------- 0 0.0 5.0 12 33
r 1.566548 4 5 tcp 1040 ------- 0 0.0 5.0 11 32
+ 1.566548 5 4 ack 40 ------- 0 5.0 0.0 11 48
- 1.566548 5 4 ack 40 ------- 0 5.0 0.0 11 48
r 1.567868 5 4 ack 40 ------- 0 5.0 0.0 11 48
h 1.567868 4 6 ack 40 ------- 0 5.0 0.0 11 48
- 1.573868 4 5 tcp 1040 ------- 0 0.0 5.0 13 34
r 1.574868 4 5 tcp 1040 ------- 0 0.0 5.0 12 33
+ 1.574868 5 4 ack 40 ------- 0 5.0 0.0 12 49
- 1.574868 5 4 ack 40 ------- 0 5.0 0.0 12 49
r 1.576188 5 4 ack 40 ------- 0 5.0 0.0 12 49
h 1.576188 4 6 ack 40 ------- 0 5.0 0.0 12 49
- 1.582188 4 5 tcp 1040 ------- 0 0.0 5.0 14 35
r 1.583188 4 5 tcp 1040 ------- 0 0.0 5.0 13 34
+ 1.583188 5 4 ack 40 ------- 0 5.0 0.0 13 50
- 1.583188 5 4 ack 40 ------- 0 5.0 0.0 13 50
r 1.584508 5 4 ack 40 ------- 0 5.0 0.0 13 50
h 1.584508 4 6 ack 40 ------- 0 5.0 0.0 13 50
r 1.591508 4 5 tcp 1040 ------- 0 0.0 5.0 14 35
+ 1.591508 5 4 ack 40 ------- 0 5.0 0.0 14 51
- 1.591508 5 4 ack 40 ------- 0 5.0 0.0 14 51
r 1.592828 5 4 ack 40 ------- 0 5.0 0.0 14 51
h 1.592828 4 6 ack 40 ------- 0 5.0 0.0 14 51
r 1.600028 6 3 tcp 1040 ------- 0 2.0 3.0 7 36
h 1.600028 3 6 ack 40 ------- 0 3.0 2.0 7 52
r 1.604444 6 3 tcp 1040 ------- 0 2.0 3.0 8 37
h 1.604444 3 6 ack 40 ------- 0 3.0 2.0 8 53
r 1.60886 6 3 tcp 1040 ------- 0 2.0 3.0 9 38
h 1.60886 3 6 ack 40 ------- 0 3.0 2.0 9 54
r 1.613276 6 3 tcp 1040 ------- 0 2.0 3.0 10 39
h 1.613276 3 6 ack 40 ------- 0 3.0 2.0 10 55
r 1.617692 6 3 tcp 1040 ------- 0 2.0 3.0 11 40
h 1.617692 3 6 ack 40 ------- 0 3.0 2.0 11 56
r 1.622108 6 3 tcp 1040 ------- 0 2.0 3.0 12 41
h 1.622108 3 6 ack 40 ------- 0 3.0 2.0 12 57
r 1.626524 6 3 tcp 1040 ------- 0 2.0 3.0 13 42
h 1.626524 3 6 ack 40 ------- 0 3.0 2.0 13 58
r 1.63094 6 3 tcp 1040 ------- 0 2.0 3.0 14 43
h 1.63094 3 6 ack 40 ------- 0 3.0 2.0 14 59
+ 1.634588 4 6 ack 40 ------- 0 5.0 0.0 7 44
- 1.634588 4 6 ack 40 ------- 0 5.0 0.0 7 44
d 1.634592 3 6 ack 40 ------- 0 5.0 0.0 7 44
d 1.634592 2 6 ack 40 ------- 0 5.0 0.0 7 44
d 1.634592 1 6 ack 40 ------- 0 5.0 0.0 7 44
+ 1.642908 4 6 ack 40 ------- 0 5.0 0.0 8 45
- 1.642908 4 6 ack 40 ------- 0 5.0 0.0 8 45
d 1.642912 3 6 ack 40 ------- 0 5.0 0.0 8 45
d 1.642912 2 6 ack 40 ------- 0 5.0 0.0 8 45
d 1.642912 1 6 ack 40 ------- 0 5.0 0.0 8 45
+ 1.651228 4 6 ack 40 ------- 0 5.0 0.0 9 46
- 1.651228 4 6 ack 40 ------- 0 5.0 0.0 9 46
d 1.651232 3 6 ack 40 ------- 0 5.0 0.0 9 46
d 1.651232 2 6 ack 40 ------- 0 5.0 0.0 9 46
d 1.651232 1 6 ack 40 ------- 0 5.0 0.0 9 46
+ 1.659548 4 6 ack 40 ------- 0 5.0 0.0 10 47
- 1.659548 4 6 ack 40 ------- 0 5.0 0.0 10 47
d 1.659552 3 6 ack 40 ------- 0 5.0 0.0 10 47
d 1.659552 2 6 ack 40 ------- 0 5.0 0.0 10 47
d 1.659552 1 6 ack 40 ------- 0 5.0 0.0 10 47
+ 1.667868 4 6 ack 40 ------- 0 5.0 0.0 11 48
- 1.667868 4 6 ack 40 ------- 0 5.0 0.0 11 48
d 1.667872 3 6 ack 40 ------- 0 5.0 0.0 11 48
d 1.667872 2 6 ack 40 ------- 0 5.0 0.0 11 48
d 1.667872 1 6 ack 40 ------- 0 5.0 0.0 11 48
+ 1.676188 4 6 ack 40 ------- 0 5.0 0.0 12 49
- 1.676188 4 6 ack 40 ------- 0 5.0 0.0 12 49
d 1.676192 3 6 ack 40 ------- 0 5.0 0.0 12 49
d 1.676192 2 6 ack 40 ------- 0 5.0 0.0 12 49
d 1.676192 1 6 ack 40 ------- 0 5.0 0.0 12 49
+ 1.684508 4 6 ack 40 ------- 0 5.0 0.0 13 50
- 1.684508 4 6 ack 40 ------- 0 5.0 0.0 13 50
d 1.684512 3 6 ack 40 ------- 0 5.0 0.0 13 50
d 1.684512 2 6 ack 40 ------- 0 5.0 0.0 13 50
d 1.684512 1 6 ack 40 ------- 0 5.0 0.0 13 50
+ 1.692828 4 6 ack 40 ------- 0 5.0 0.0 14 51
- 1.692828 4 6 ack 40 ------- 0 5.0 0.0 14 51
d 1.692832 3 6 ack 40 ------- 0 5.0 0.0 14 51
d 1.692832 2 6 ack 40 ------- 0 5.0 0.0 14 51
d 1.692832 1 6 ack 40 ------- 0 5.0 0.0 14 51
+ 1.700028 3 6 ack 40 ------- 0 3.0 2.0 7 52
- 1.700028 3 6 ack 40 ------- 0 3.0 2.0 7 52
d 1.700032 4 6 ack 40 ------- 0 3.0 2.0 7 52
d 1.700032 1 6 ack 40 ------- 0 3.0 2.0 7 52
d 1.700032 0 6 ack 40 ------- 0 3.0 2.0 7 52
+ 1.704444 3 6 ack 40 ------- 0 3.0 2.0 8 53
- 1.704444 3 6 ack 40 ------- 0 3.0 2.0 8 53
d 1.704448 4 6 ack 40 ------- 0 3.0 2.0 8 53
d 1.704448 1 6 ack 40 ------- 0 3.0 2.0 8 53
d 1.704448 0 6 ack 40 ------- 0 3.0 2.0 8 53
+ 1.70886 3 6 ack 40 ------- 0 3.0 2.0 9 54
- 1.70886 3 6 ack 40 ------- 0 3.0 2.0 9 54
d 1.708864 4 6 ack 40 ------- 0 3.0 2.0 9 54
d 1.708864 1 6 ack 40 ------- 0 3.0 2.0 9 54
d 1.708864 0 6 ack 40 ------- 0 3.0 2.0 9 54
+ 1.713276 3 6 ack 40 ------- 0 3.0 2.0 10 55
- 1.713276 3 6 ack 40 ------- 0 3.0 2.0 10 55
d 1.71328 4 6 ack 40 ------- 0 3.0 2.0 10 55
d 1.71328 1 6 ack 40 ------- 0 3.0 2.0 10 55
d 1.71328 0 6 ack 40 ------- 0 3.0 2.0 10 55
+ 1.717692 3 6 ack 40 ------- 0 3.0 2.0 11 56
- 1.717692 3 6 ack 40 ------- 0 3.0 2.0 11 56
d 1.717696 4 6 ack 40 ------- 0 3.0 2.0 11 56
d 1.717696 1 6 ack 40 ------- 0 3.0 2.0 11 56
d 1.717696 0 6 ack 40 ------- 0 3.0 2.0 11 56
+ 1.722108 3 6 ack 40 ------- 0 3.0 2.0 12 57
- 1.722108 3 6 ack 40 ------- 0 3.0 2.0 12 57
d 1.722112 4 6 ack 40 ------- 0 3.0 2.0 12 57
d 1.722112 1 6 ack 40 ------- 0 3.0 2.0 12 57
d 1.722112 0 6 ack 40 ------- 0 3.0 2.0 12 57
+ 1.726524 3 6 ack 40 ------- 0 3.0 2.0 13 58
- 1.726524 3 6 ack 40 ------- 0 3.0 2.0 13 58
d 1.726528 4 6 ack 40 ------- 0 3.0 2.0 13 58
d 1.726528 1 6 ack 40 ------- 0 3.0 2.0 13 58
d 1.726528 0 6 ack 40 ------- 0 3.0 2.0 13 58
+ 1.73094 3 6 ack 40 ------- 0 3.0 2.0 14 59
- 1.73094 3 6 ack 40 ------- 0 3.0 2.0 14 59
d 1.730944 4 6 ack 40 ------- 0 3.0 2.0 14 59
d 1.730944 1 6 ack 40 ------- 0 3.0 2.0 14 59
d 1.730944 0 6 ack 40 ------- 0 3.0 2.0 14 59
r 1.734592 6 0 ack 40 ------- 0 5.0 0.0 7 44
h 1.734592 0 6 tcp 1040 ------- 0 0.0 5.0 15 60
h 1.734592 0 6 tcp 1040 ------- 0 0.0 5.0 16 61
r 1.742912 6 0 ack 40 ------- 0 5.0 0.0 8 45
h 1.742912 0 6 tcp 1040 ------- 0 0.0 5.0 17 62
h 1.742912 0 6 tcp 1040 ------- 0 0.0 5.0 18 63
r 1.751232 6 0 ack 40 ------- 0 5.0 0.0 9 46
h 1.751232 0 6 tcp 1040 ------- 0 0.0 5.0 19 64
h 1.751232 0 6 tcp 1040 ------- 0 0.0 5.0 20 65
r 1.759552 6 0 ack 40 ------- 0 5.0 0.0 10 47
h 1.759552 0 6 tcp 1040 ------- 0 0.0 5.0 21 66
h 1.759552 0 6 tcp 1040 ------- 0 0.0 5.0 22 67
r 1.767872 6 0 ack 40 ------- 0 5.0 0.0 11 48
h 1.767872 0 6 tcp 1040 ------- 0 0.0 5.0 23 68
h 1.767872 0 6 tcp 1040 ------- 0 0.0 5.0 24 69
r 1.776192 6 0 ack 40 ------- 0 5.0 0.0 12 49
h 1.776192 0 6 tcp 1040 ------- 0 0.0 5.0 25 70
h 1.776192 0 6 tcp 1040 ------- 0 0.0 5.0 26 71
r 1.784512 6 0 ack 40 ------- 0 5.0 0.0 13 50
h 1.784512 0 6 tcp 1040 ------- 0 0.0 5.0 27 72
h 1.784512 0 6 tcp 1040 ------- 0 0.0 5.0 28 73
r 1.792832 6 0 ack 40 ------- 0 5.0 0.0 14 51
h 1.792832 0 6 tcp 1040 ------- 0 0.0 5.0 29 74
h 1.792832 0 6 tcp 1040 ------- 0 0.0 5.0 30 75
r 1.800032 6 2 ack 40 ------- 0 3.0 2.0 7 52
h 1.800032 2 6 tcp 1040 ------- 0 2.0 3.0 15 76
h 1.800032 2 6 tcp 1040 ------- 0 2.0 3.0 16 77
r 1.804448 6 2 ack 40 ------- 0 3.0 2.0 8 53
h 1.804448 2 6 tcp 1040 ------- 0 2.0 3.0 17 78
h 1.804448 2 6 tcp 1040 ------- 0 2.0 3.0 18 79
r 1.808864 6 2 ack 40 ------- 0 3.0 2.0 9 54
h 1.808864 2 6 tcp 1040 ------- 0 2.0 3.0 19 80
h 1.808864 2 6 tcp 1040 ------- 0 2.0 3.0 20 81
r 1.81328 6 2 ack 40 ------- 0 3.0 2.0 10 55
h 1.81328 2 6 tcp 1040 ------- 0 2.0 3.0 21 82
h 1.81328 2 6 tcp 1040 ------- 0 2.0 3.0 22 83
r 1.817696 6 2 ack 40 ------- 0 3.0 2.0 11 56
h 1.817696 2 6 tcp 1040 ------- 0 2.0 3.0 23 84
h 1.817696 2 6 tcp 1040 ------- 0 2.0 3.0 24 85
r 1.822112 6 2 ack 40 ------- 0 3.0 2.0 12 57
h 1.822112 2 6 tcp 1040 ------- 0 2.0 3.0 25 86
h 1.822112 2 6 tcp 1040 ------- 0 2.0 3.0 26 87
r 1.826528 6 2 ack 40 ------- 0 3.0 2.0 13 58
h 1.826528 2 6 tcp 1040 ------- 0 2.0 3.0 27 88
h 1.826528 2 6 tcp 1040 ------- 0 2.0 3.0 28 89
r 1.830944 6 2 ack 40 ------- 0 3.0 2.0 14 59
h 1.830944 2 6 tcp 1040 ------- 0 2.0 3.0 29 90
h 1.830944 2 6 tcp 1040 ------- 0 2.0 3.0 30 91
+ 1.834592 0 6 tcp 1040 ------- 0 0.0 5.0 15 60
- 1.834592 0 6 tcp 1040 ------- 0 0.0 5.0 15 60
+ 1.834592 0 6 tcp 1040 ------- 0 0.0 5.0 16 61
d 1.834596 3 6 tcp 1040 ------- 0 0.0 5.0 15 60
d 1.834596 2 6 tcp 1040 ------- 0 0.0 5.0 15 60
d 1.834596 1 6 tcp 1040 ------- 0 0.0 5.0 15 60
- 1.839008 0 6 tcp 1040 ------- 0 0.0 5.0 16 61
d 1.839012 3 6 tcp 1040 ------- 0 0.0 5.0 16 61
d 1.839012 2 6 tcp 1040 ------- 0 0.0 5.0 16 61
d 1.839012 1 6 tcp 1040 ------- 0 0.0 5.0 16 61
+ 1.842912 0 6 tcp 1040 ------- 0 0.0 5.0 17 62
+ 1.842912 0 6 tcp 1040 ------- 0 0.0 5.0 18 63
- 1.843424 0 6 tcp 1040 ------- 0 0.0 5.0 17 62
d 1.843428 3 6 tcp 1040 ------- 0 0.0 5.0 17 62
d 1.843428 2 6 tcp 1040 ------- 0 0.0 5.0 17 62
d 1.843428 1 6 tcp 1040 ------- 0 0.0 5.0 17 62
- 1.84784 0 6 tcp 1040 ------- 0 0.0 5.0 18 63
d 1.847844 3 6 tcp 1040 ------- 0 0.0 5.0 18 63
d 1.847844 2 6 tcp 1040 ------- 0 0.0 5.0 18 63
d 1.847844 1 6 tcp 1040 ------- 0 0.0 5.0 18 63
+ 1.851232 0 6 tcp 1040 ------- 0 0.0 5.0 19 64
+ 1.851232 0 6 tcp 1040 ------- 0 0.0 5.0 20 65
- 1.852256 0 6 tcp 1040 ------- 0 0.0 5.0 19 64
d 1.85226 3 6 tcp 1040 ------- 0 0.0 5.0 19 64
d 1.85226 2 6 tcp 1040 ------- 0 0.0 5.0 19 64
d 1.85226 1 6 tcp 1040 ------- 0 0.0 5.0 19 64
- 1.856672 0 6 tcp 1040 ------- 0 0.0 5.0 20 65
d 1.856676 3 6 tcp 1040 ------- 0 0.0 5.0 20 65
d 1.856676 2 6 tcp 1040 ------- 0 0.0 5.0 20 65
d 1.856676 1 6 tcp 1040 ------- 0 0.0 5.0 20 65
+ 1.859552 0 6 tcp 1040 ------- 0 0.0 5.0 21 66
+ 1.859552 0 6 tcp 1040 ------- 0 0.0 5.0 22 67
- 1.861088 0 6 tcp 1040 ------- 0 0.0 5.0 21 66
d 1.861092 3 6 tcp 1040 ------- 0 0.0 5.0 21 66
d 1.861092 2 6 tcp 1040 ------- 0 0.0 5.0 21 66
d 1.861092 1 6 tcp 1040 ------- 0 0.0 5.0 21 66
- 1.865504 0 6 tcp 1040 ------- 0 0.0 5.0 22 67
d 1.865508 3 6 tcp 1040 ------- 0 0.0 5.0 22 67
d 1.865508 2 6 tcp 1040 ------- 0 0.0 5.0 22 67
d 1.865508 1 6 tcp 1040 ------- 0 0.0 5.0 22 67
+ 1.867872 0 6 tcp 1040 ------- 0 0.0 5.0 23 68
+ 1.867872 0 6 tcp 1040 ------- 0 0.0 5.0 24 69
- 1.86992 0 6 tcp 1040 ------- 0 0.0 5.0 23 68
d 1.869924 3 6 tcp 1040 ------- 0 0.0 5.0 23 68
d 1.869924 2 6 tcp 1040 ------- 0 0.0 5.0 23 68
d 1.869924 1 6 tcp 1040 ------- 0 0.0 5.0 23 68
- 1.874336 0 6 tcp 1040 ------- 0 0.0 5.0 24 69
d 1.87434 3 6 tcp 1040 ------- 0 0.0 5.0 24 69
d 1.87434 2 6 tcp 1040 ------- 0 0.0 5.0 24 69
d 1.87434 1 6 tcp 1040 ------- 0 0.0 5.0 24 69
+ 1.876192 0 6 tcp 1040 ------- 0 0.0 5.0 25 70
+ 1.876192 0 6 tcp 1040 ------- 0 0.0 5.0 26 71
- 1.878752 0 6 tcp 1040 ------- 0 0.0 5.0 25 70
d 1.878756 3 6 tcp 1040 ------- 0 0.0 5.0 25 70
d 1.878756 2 6 tcp 1040 ------- 0 0.0 5.0 25 70
d 1.878756 1 6 tcp 1040 ------- 0 0.0 5.0 25 70
- 1.883168 0 6 tcp 1040 ------- 0 0.0 5.0 26 71
d 1.883172 3 6 tcp 1040 ------- 0 0.0 5.0 26 71
d 1.883172 2 6 tcp 1040 ------- 0 0.0 5.0 26 71
d 1.883172 1 6 tcp 1040 ------- 0 0.0 5.0 26 71
+ 1.884512 0 6 tcp 1040 ------- 0 0.0 5.0 27 72
+ 1.884512 0 6 tcp 1040 ------- 0 0.0 5.0 28 73
- 1.887584 0 6 tcp 1040 ------- 0 0.0 5.0 27 72
d 1.887588 3 6 tcp 1040 ------- 0 0.0 5.0 27 72
d 1.887588 2 6 tcp 1040 ------- 0 0.0 5.0 27 72
d 1.887588 1 6 tcp 1040 ------- 0 0.0 5.0 27 72
- 1.892 0 6 tcp 1040 ------- 0 0.0 5.0 28 73
d 1.892004 3 6 tcp 1040 ------- 0 0.0 5.0 28 73
d 1.892004 2 6 tcp 1040 ------- 0 0.0 5.0 28 73
d 1.892004 1 6 tcp 1040 ------- 0 0.0 5.0 28 73
+ 1.892832 0 6 tcp 1040 ------- 0 0.0 5.0 29 74
+ 1.892832 0 6 tcp 1040 ------- 0 0.0 5.0 30 75
- 1.896416 0 6 tcp 1040 ------- 0 0.0 5.0 29 74
d 1.89642 3 6 tcp 1040 ------- 0 0.0 5.0 29 74
d 1.89642 2 6 tcp 1040 ------- 0 0.0 5.0 29 74
d 1.89642 1 6 tcp 1040 ------- 0 0.0 5.0 29 74
+ 1.900032 2 6 tcp 1040 ------- 0 2.0 3.0 15 76
- 1.900032 2 6 tcp 1040 ------- 0 2.0 3.0 15 76
+ 1.900032 2 6 tcp 1040 ------- 0 2.0 3.0 16 77
d 1.900036 4 6 tcp 1040 ------- 0 2.0 3.0 15 76
d 1.900036 1 6 tcp 1040 ------- 0 2.0 3.0 15 76
d 1.900036 0 6 tcp 1040 ------- 0 2.0 3.0 15 76
- 1.900832 0 6 tcp 1040 ------- 0 0.0 5.0 30 75
d 1.900836 3 6 tcp 1040 ------- 0 0.0 5.0 30 75
d 1.900836 2 6 tcp 1040 ------- 0 0.0 5.0 30 75
d 1.900836 1 6 tcp 1040 ------- 0 0.0 5.0 30 75
+ 1.904448 2 6 tcp 1040 ------- 0 2.0 3.0 17 78
+ 1.904448 2 6 tcp 1040 ------- 0 2.0 3.0 18 79
- 1.904448 2 6 tcp 1040 ------- 0 2.0 3.0 16 77
d 1.904452 4 6 tcp 1040 ------- 0 2.0 3.0 16 77
d 1.904452 1 6 tcp 1040 ------- 0 2.0 3.0 16 77
d 1.904452 0 6 tcp 1040 ------- 0 2.0 3.0 16 77
+ 1.908864 2 6 tcp 1040 ------- 0 2.0 3.0 19 80
+ 1.908864 2 6 tcp 1040 ------- 0 2.0 3.0 20 81
- 1.908864 2 6 tcp 1040 ------- 0 2.0 3.0 17 78
d 1.908868 4 6 tcp 1040 ------- 0 2.0 3.0 17 78
d 1.908868 1 6 tcp 1040 ------- 0 2.0 3.0 17 78
d 1.908868 0 6 tcp 1040 ------- 0 2.0 3.0 17 78
+ 1.91328 2 6 tcp 1040 ------- 0 2.0 3.0 21 82
+ 1.91328 2 6 tcp 1040 ------- 0 2.0 3.0 22 83
- 1.91328 2 6 tcp 1040 ------- 0 2.0 3.0 18 79
d 1.913284 4 6 tcp 1040 ------- 0 2.0 3.0 18 79
d 1.913284 1 6 tcp 1040 ------- 0 2.0 3.0 18 79
d 1.913284 0 6 tcp 1040 ------- 0 2.0 3.0 18 79
+ 1.917696 2 6 tcp 1040 ------- 0 2.0 3.0 23 84
+ 1.917696 2 6 tcp 1040 ------- 0 2.0 3.0 24 85