n -t 0 -s 0 -S DLABEL -l "Ping1" -L ""
n -t 0 -s 1 -S DLABEL -l "Ping2" -L ""
n -t 0 -s 2 -S DLABEL -l "Ping3" -L ""
n -t 0 -s 3 -S DLABEL -l "Ping4" -L ""
n -t 0 -s 5 -S DLABEL -l "Ping5" -L ""
V -t * -v 1.0a5 -a 0
A -t * -n 1 -p 0 -o 0x7fffffff -c 30 -a 1
A -t * -h 1 -m 1073741823 -s 0
n -t * -a 4 -s 4 -S UP -v circle -c black -i black
n -t * -a 0 -s 0 -S UP -v circle -c black -i black
n -t * -a 5 -s 5 -S UP -v circle -c black -i black
n -t * -a 1 -s 1 -S UP -v circle -c black -i black
n -t * -a 2 -s 2 -S UP -v circle -c black -i black
n -t * -a 3 -s 3 -S UP -v circle -c black -i black
l -t * -s 0 -d 4 -S UP -r 100000000 -D 0.29999999999999999 -c black
l -t * -s 1 -d 4 -S UP -r 1000000 -D 0.29999999999999999 -c black
l -t * -s 2 -d 4 -S UP -r 1000000 -D 0.29999999999999999 -c black
l -t * -s 3 -d 4 -S UP -r 100000000 -D 0.29999999999999999 -c black
l -t * -s 4 -d 5 -S UP -r 1000000 -D 0.29999999999999999 -c black
+ -t 0.1 -s 0 -d 4 -p ping -e 500000 -c 0 -i 0 -a 0 -x {0.0 5.0 -1 ------- null}
- -t 0.1 -s 0 -d 4 -p ping -e 500000 -c 0 -i 0 -a 0 -x {0.0 5.0 -1 ------- null}
h -t 0.1 -s 0 -d 4 -p ping -e 500000 -c 0 -i 0 -a 0 -x {0.0 5.0 -1 ------- null}
+ -t 0.1 -s 2 -d 4 -p ping -e 7500 -c 0 -i 1 -a 0 -x {2.0 3.0 -1 ------- null}
- -t 0.1 -s 2 -d 4 -p ping -e 7500 -c 0 -i 1 -a 0 -x {2.0 3.0 -1 ------- null}
h -t 0.1 -s 2 -d 4 -p ping -e 7500 -c 0 -i 1 -a 0 -x {2.0 3.0 -1 ------- null}
+ -t 0.2 -s 0 -d 4 -p ping -e 500000 -c 0 -i 2 -a 0 -x {0.0 5.0 -1 ------- null}
- -t 0.2 -s 0 -d 4 -p ping -e 500000 -c 0 -i 2 -a 0 -x {0.0 5.0 -1 ------- null}
h -t 0.2 -s 0 -d 4 -p ping -e 500000 -c 0 -i 2 -a 0 -x {0.0 5.0 -1 ------- null}
+ -t 0.2 -s 2 -d 4 -p ping -e 7500 -c 0 -i 3 -a 0 -x {2.0 3.0 -1 ------- null}
- -t 0.2 -s 2 -d 4 -p ping -e 7500 -c 0 -i 3 -a 0 -x {2.0 3.0 -1 ------- null}
h -t 0.2 -s 2 -d 4 -p ping -e 7500 -c 0 -i 3 -a 0 -x {2.0 3.0 -1 ------- null}
+ -t 0.3 -s 0 -d 4 -p ping -e 500000 -c 0 -i 4 -a 0 -x {0.0 5.0 -1 ------- null}
- -t 0.3 -s 0 -d 4 -p ping -e 500000 -c 0 -i 4 -a 0 -x {0.0 5.0 -1 ------- null}
h -t 0.3 -s 0 -d 4 -p ping -e 500000 -c 0 -i 4 -a 0 -x {0.0 5.0 -1 ------- null}
+ -t 0.3 -s 2 -d 4 -p ping -e 7500 -c 0 -i 5 -a 0 -x {2.0 3.0 -1 ------- null}
- -t 0.3 -s 2 -d 4 -p ping -e 7500 -c 0 -i 5 -a 0 -x {2.0 3.0 -1 ------- null}
h -t 0.3 -s 2 -d 4 -p ping -e 7500 -c 0 -i 5 -a 0 -x {2.0 3.0 -1 ------- null}
+ -t 0.4 -s 0 -d 4 -p ping -e 500000 -c 0 -i 6 -a 0 -x {0.0 5.0 -1 ------- null}
- -t 0.4 -s 0 -d 4 -p ping -e 500000 -c 0 -i 6 -a 0 -x {0.0 5.0 -1 ------- null}
h -t 0.4 -s 0 -d 4 -p ping -e 500000 -c 0 -i 6 -a 0 -x {0.0 5.0 -1 ------- null}
+ -t 0.4 -s 2 -d 4 -p ping -e 7500 -c 0 -i 7 -a 0 -x {2.0 3.0 -1 ------- null}
- -t 0.4 -s 2 -d 4 -p ping -e 7500 -c 0 -i 7 -a 0 -x {2.0 3.0 -1 ------- null}
h -t 0.4 -s 2 -d 4 -p ping -e 7500 -c 0 -i 7 -a 0 -x {2.0 3.0 -1 ------- null}
r -t 0.44 -s 0 -d 4 -p ping -e 500000 -c 0 -i 0 -a 0 -x {0.0 5.0 -1 ------- null}
+ -t 0.44 -s 4 -d 5 -p ping -e 500000 -c 0 -i 0 -a 0 -x {0.0 5.0 -1 ------- null}
- -t 0.44 -s 4 -d 5 -p ping -e 500000 -c 0 -i 0 -a 0 -x {0.0 5.0 -1 ------- null}
h -t 0.44 -s 4 -d 5 -p ping -e 500000 -c 0 -i 0 -a 0 -x {0.0 5.0 -1 ------- null}
r -t 0.46 -s 2 -d 4 -p ping -e 7500 -c 0 -i 1 -a 0 -x {2.0 3.0 -1 ------- null}
+ -t 0.46 -s 4 -d 3 -p ping -e 7500 -c 0 -i 1 -a 0 -x {2.0 3.0 -1 ------- null}
- -t 0.46 -s 4 -d 3 -p ping -e 7500 -c 0 -i 1 -a 0 -x {2.0 3.0 -1 ------- null}
h -t 0.46 -s 4 -d 3 -p ping -e 7500 -c 0 -i 1 -a 0 -x {2.0 3.0 -1 ------- null}
+ -t 0.5 -s 0 -d 4 -p ping -e 500000 -c 0 -i 8 -a 0 -x {0.0 5.0 -1 ------- null}
- -t 0.5 -s 0 -d 4 -p ping -e 500000 -c 0 -i 8 -a 0 -x {0.0 5.0 -1 ------- null}
h -t 0.5 -s 0 -d 4 -p ping -e 500000 -c 0 -i 8 -a 0 -x {0.0 5.0 -1 ------- null}
+ -t 0.5 -s 2 -d 4 -p ping -e 7500 -c 0 -i 9 -a 0 -x {2.0 3.0 -1 ------- null}
- -t 0.5 -s 2 -d 4 -p ping -e 7500 -c 0 -i 9 -a 0 -x {2.0 3.0 -1 ------- null}
h -t 0.5 -s 2 -d 4 -p ping -e 7500 -c 0 -i 9 -a 0 -x {2.0 3.0 -1 ------- null}
r -t 0.54 -s 0 -d 4 -p ping -e 500000 -c 0 -i 2 -a 0 -x {0.0 5.0 -1 ------- null}
+ -t 0.54 -s 4 -d 5 -p ping -e 500000 -c 0 -i 2 -a 0 -x {0.0 5.0 -1 ------- null}
r -t 0.56 -s 2 -d 4 -p ping -e 7500 -c 0 -i 3 -a 0 -x {2.0 3.0 -1 ------- null}
+ -t 0.56 -s 4 -d 3 -p ping -e 7500 -c 0 -i 3 -a 0 -x {2.0 3.0 -1 ------- null}
- -t 0.56 -s 4 -d 3 -p ping -e 7500 -c 0 -i 3 -a 0 -x {2.0 3.0 -1 ------- null}
h -t 0.56 -s 4 -d 3 -p ping -e 7500 -c 0 -i 3 -a 0 -x {2.0 3.0 -1 ------- null}
+ -t 0.6 -s 0 -d 4 -p ping -e 500000 -c 0 -i 10 -a 0 -x {0.0 5.0 -1 ------- null}
- -t 0.6 -s 0 -d 4 -p ping -e 500000 -c 0 -i 10 -a 0 -x {0.0 5.0 -1 ------- null}
h -t 0.6 -s 0 -d 4 -p ping -e 500000 -c 0 -i 10 -a 0 -x {0.0 5.0 -1 ------- null}
+ -t 0.6 -s 2 -d 4 -p ping -e 7500 -c 0 -i 11 -a 0 -x {2.0 3.0 -1 ------- null}
- -t 0.6 -s 2 -d 4 -p ping -e 7500 -c 0 -i 11 -a 0 -x {2.0 3.0 -1 ------- null}
h -t 0.6 -s 2 -d 4 -p ping -e 7500 -c 0 -i 11 -a 0 -x {2.0 3.0 -1 ------- null}
r -t 0.64 -s 0 -d 4 -p ping -e 500000 -c 0 -i 4 -a 0 -x {0.0 5.0 -1 ------- null}
+ -t 0.64 -s 4 -d 5 -p ping -e 500000 -c 0 -i 4 -a 0 -x {0.0 5.0 -1 ------- null}
d -t 0.64 -s 4 -d 5 -p ping -e 500000 -c 0 -i 4 -a 0 -x {0.0 5.0 -1 ------- null}
r -t 0.66 -s 2 -d 4 -p ping -e 7500 -c 0 -i 5 -a 0 -x {2.0 3.0 -1 ------- null}
+ -t 0.66 -s 4 -d 3 -p ping -e 7500 -c 0 -i 5 -a 0 -x {2.0 3.0 -1 ------- null}
- -t 0.66 -s 4 -d 3 -p ping -e 7500 -c 0 -i 5 -a 0 -x {2.0 3.0 -1 ------- null}
h -t 0.66 -s 4 -d 3 -p ping -e 7500 -c 0 -i 5 -a 0 -x {2.0 3.0 -1 ------- null}
+ -t 0.7 -s 0 -d 4 -p ping -e 500000 -c 0 -i 12 -a 0 -x {0.0 5.0 -1 ------- null}
- -t 0.7 -s 0 -d 4 -p ping -e 500000 -c 0 -i 12 -a 0 -x {0.0 5.0 -1 ------- null}
h -t 0.7 -s 0 -d 4 -p ping -e 500000 -c 0 -i 12 -a 0 -x {0.0 5.0 -1 ------- null}
+ -t 0.7 -s 2 -d 4 -p ping -e 7500 -c 0 -i 13 -a 0 -x {2.0 3.0 -1 ------- null}
- -t 0.7 -s 2 -d 4 -p ping -e 7500 -c 0 -i 13 -a 0 -x {2.0 3.0 -1 ------- null}
h -t 0.7 -s 2 -d 4 -p ping -e 7500 -c 0 -i 13 -a 0 -x {2.0 3.0 -1 ------- null}
r -t 0.74 -s 0 -d 4 -p ping -e 500000 -c 0 -i 6 -a 0 -x {0.0 5.0 -1 ------- null}
+ -t 0.74 -s 4 -d 5 -p ping -e 500000 -c 0 -i 6 -a 0 -x {0.0 5.0 -1 ------- null}
d -t 0.74 -s 4 -d 5 -p ping -e 500000 -c 0 -i 6 -a 0 -x {0.0 5.0 -1 ------- null}
r -t 0.76 -s 2 -d 4 -p ping -e 7500 -c 0 -i 7 -a 0 -x {2.0 3.0 -1 ------- null}
+ -t 0.76 -s 4 -d 3 -p ping -e 7500 -c 0 -i 7 -a 0 -x {2.0 3.0 -1 ------- null}
- -t 0.76 -s 4 -d 3 -p ping -e 7500 -c 0 -i 7 -a 0 -x {2.0 3.0 -1 ------- null}
h -t 0.76 -s 4 -d 3 -p ping -e 7500 -c 0 -i 7 -a 0 -x {2.0 3.0 -1 ------- null}
r -t 0.7606 -s 4 -d 3 -p ping -e 7500 -c 0 -i 1 -a 0 -x {2.0 3.0 -1 ------- null}
+ -t 0.7606 -s 3 -d 4 -p ping -e 64 -c 0 -i 14 -a 0 -x {3.0 2.0 -1 ------- null}
- -t 0.7606 -s 3 -d 4 -p ping -e 64 -c 0 -i 14 -a 0 -x {3.0 2.0 -1 ------- null}
h -t 0.7606 -s 3 -d 4 -p ping -e 64 -c 0 -i 14 -a 0 -x {3.0 2.0 -1 ------- null}
+ -t 0.8 -s 0 -d 4 -p ping -e 500000 -c 0 -i 15 -a 0 -x {0.0 5.0 -1 ------- null}
- -t 0.8 -s 0 -d 4 -p ping -e 500000 -c 0 -i 15 -a 0 -x {0.0 5.0 -1 ------- null}
h -t 0.8 -s 0 -d 4 -p ping -e 500000 -c 0 -i 15 -a 0 -x {0.0 5.0 -1 ------- null}
+ -t 0.8 -s 2 -d 4 -p ping -e 7500 -c 0 -i 16 -a 0 -x {2.0 3.0 -1 ------- null}
- -t 0.8 -s 2 -d 4 -p ping -e 7500 -c 0 -i 16 -a 0 -x {2.0 3.0 -1 ------- null}
h -t 0.8 -s 2 -d 4 -p ping -e 7500 -c 0 -i 16 -a 0 -x {2.0 3.0 -1 ------- null}
r -t 0.84 -s 0 -d 4 -p ping -e 500000 -c 0 -i 8 -a 0 -x {0.0 5.0 -1 ------- null}
+ -t 0.84 -s 4 -d 5 -p ping -e 500000 -c 0 -i 8 -a 0 -x {0.0 5.0 -1 ------- null}
d -t 0.84 -s 4 -d 5 -p ping -e 500000 -c 0 -i 8 -a 0 -x {0.0 5.0 -1 ------- null}
r -t 0.86 -s 2 -d 4 -p ping -e 7500 -c 0 -i 9 -a 0 -x {2.0 3.0 -1 ------- null}
+ -t 0.86 -s 4 -d 3 -p ping -e 7500 -c 0 -i 9 -a 0 -x {2.0 3.0 -1 ------- null}
- -t 0.86 -s 4 -d 3 -p ping -e 7500 -c 0 -i 9 -a 0 -x {2.0 3.0 -1 ------- null}
h -t 0.86 -s 4 -d 3 -p ping -e 7500 -c 0 -i 9 -a 0 -x {2.0 3.0 -1 ------- null}
r -t 0.8606 -s 4 -d 3 -p ping -e 7500 -c 0 -i 3 -a 0 -x {2.0 3.0 -1 ------- null}
+ -t 0.8606 -s 3 -d 4 -p ping -e 64 -c 0 -i 17 -a 0 -x {3.0 2.0 -1 ------- null}
- -t 0.8606 -s 3 -d 4 -p ping -e 64 -c 0 -i 17 -a 0 -x {3.0 2.0 -1 ------- null}
h -t 0.8606 -s 3 -d 4 -p ping -e 64 -c 0 -i 17 -a 0 -x {3.0 2.0 -1 ------- null}
+ -t 0.9 -s 0 -d 4 -p ping -e 500000 -c 0 -i 18 -a 0 -x {0.0 5.0 -1 ------- null}
- -t 0.9 -s 0 -d 4 -p ping -e 500000 -c 0 -i 18 -a 0 -x {0.0 5.0 -1 ------- null}
h -t 0.9 -s 0 -d 4 -p ping -e 500000 -c 0 -i 18 -a 0 -x {0.0 5.0 -1 ------- null}
+ -t 0.9 -s 2 -d 4 -p ping -e 7500 -c 0 -i 19 -a 0 -x {2.0 3.0 -1 ------- null}
- -t 0.9 -s 2 -d 4 -p ping -e 7500 -c 0 -i 19 -a 0 -x {2.0 3.0 -1 ------- null}
h -t 0.9 -s 2 -d 4 -p ping -e 7500 -c 0 -i 19 -a 0 -x {2.0 3.0 -1 ------- null}
r -t 0.94 -s 0 -d 4 -p ping -e 500000 -c 0 -i 10 -a 0 -x {0.0 5.0 -1 ------- null}
+ -t 0.94 -s 4 -d 5 -p ping -e 500000 -c 0 -i 10 -a 0 -x {0.0 5.0 -1 ------- null}
d -t 0.94 -s 4 -d 5 -p ping -e 500000 -c 0 -i 10 -a 0 -x {0.0 5.0 -1 ------- null}
r -t 0.96 -s 2 -d 4 -p ping -e 7500 -c 0 -i 11 -a 0 -x {2.0 3.0 -1 ------- null}
+ -t 0.96 -s 4 -d 3 -p ping -e 7500 -c 0 -i 11 -a 0 -x {2.0 3.0 -1 ------- null}
- -t 0.96 -s 4 -d 3 -p ping -e 7500 -c 0 -i 11 -a 0 -x {2.0 3.0 -1 ------- null}
h -t 0.96 -s 4 -d 3 -p ping -e 7500 -c 0 -i 11 -a 0 -x {2.0 3.0 -1 ------- null}
r -t 0.9606 -s 4 -d 3 -p ping -e 7500 -c 0 -i 5 -a 0 -x {2.0 3.0 -1 ------- null}
+ -t 0.9606 -s 3 -d 4 -p ping -e 64 -c 0 -i 20 -a 0 -x {3.0 2.0 -1 ------- null}
- -t 0.9606 -s 3 -d 4 -p ping -e 64 -c 0 -i 20 -a 0 -x {3.0 2.0 -1 ------- null}
h -t 0.9606 -s 3 -d 4 -p ping -e 64 -c 0 -i 20 -a 0 -x {3.0 2.0 -1 ------- null}
+ -t 1 -s 0 -d 4 -p ping -e 500000 -c 0 -i 21 -a 0 -x {0.0 5.0 -1 ------- null}
- -t 1 -s 0 -d 4 -p ping -e 500000 -c 0 -i 21 -a 0 -x {0.0 5.0 -1 ------- null}
h -t 1 -s 0 -d 4 -p ping -e 500000 -c 0 -i 21 -a 0 -x {0.0 5.0 -1 ------- null}
+ -t 1 -s 0 -d 4 -p ping -e 500000 -c 0 -i 22 -a 0 -x {0.0 5.0 -1 ------- null}
+ -t 1 -s 2 -d 4 -p ping -e 7500 -c 0 -i 23 -a 0 -x {2.0 3.0 -1 ------- null}
- -t 1 -s 2 -d 4 -p ping -e 7500 -c 0 -i 23 -a 0 -x {2.0 3.0 -1 ------- null}
h -t 1 -s 2 -d 4 -p ping -e 7500 -c 0 -i 23 -a 0 -x {2.0 3.0 -1 ------- null}
r -t 1.04 -s 0 -d 4 -p ping -e 500000 -c 0 -i 12 -a 0 -x {0.0 5.0 -1 ------- null}
+ -t 1.04 -s 4 -d 5 -p ping -e 500000 -c 0 -i 12 -a 0 -x {0.0 5.0 -1 ------- null}
d -t 1.04 -s 4 -d 5 -p ping -e 500000 -c 0 -i 12 -a 0 -x {0.0 5.0 -1 ------- null}
- -t 1.04 -s 0 -d 4 -p ping -e 500000 -c 0 -i 22 -a 0 -x {0.0 5.0 -1 ------- null}
h -t 1.04 -s 0 -d 4 -p ping -e 500000 -c 0 -i 22 -a 0 -x {0.0 5.0 -1 ------- null}
r -t 1.06 -s 2 -d 4 -p ping -e 7500 -c 0 -i 13 -a 0 -x {2.0 3.0 -1 ------- null}
+ -t 1.06 -s 4 -d 3 -p ping -e 7500 -c 0 -i 13 -a 0 -x {2.0 3.0 -1 ------- null}
- -t 1.06 -s 4 -d 3 -p ping -e 7500 -c 0 -i 13 -a 0 -x {2.0 3.0 -1 ------- null}
h -t 1.06 -s 4 -d 3 -p ping -e 7500 -c 0 -i 13 -a 0 -x {2.0 3.0 -1 ------- null}
r -t 1.0606 -s 4 -d 3 -p ping -e 7500 -c 0 -i 7 -a 0 -x {2.0 3.0 -1 ------- null}
+ -t 1.0606 -s 3 -d 4 -p ping -e 64 -c 0 -i 24 -a 0 -x {3.0 2.0 -1 ------- null}
- -t 1.0606 -s 3 -d 4 -p ping -e 64 -c 0 -i 24 -a 0 -x {3.0 2.0 -1 ------- null}
h -t 1.0606 -s 3 -d 4 -p ping -e 64 -c 0 -i 24 -a 0 -x {3.0 2.0 -1 ------- null}
r -t 1.06060512 -s 3 -d 4 -p ping -e 64 -c 0 -i 14 -a 0 -x {3.0 2.0 -1 ------- null}
+ -t 1.06060512 -s 4 -d 2 -p ping -e 64 -c 0 -i 14 -a 0 -x {3.0 2.0 -1 ------- null}
- -t 1.06060512 -s 4 -d 2 -p ping -e 64 -c 0 -i 14 -a 0 -x {3.0 2.0 -1 ------- null}
h -t 1.06060512 -s 4 -d 2 -p ping -e 64 -c 0 -i 14 -a 0 -x {3.0 2.0 -1 ------- null}
+ -t 1.1 -s 0 -d 4 -p ping -e 500000 -c 0 -i 25 -a 0 -x {0.0 5.0 -1 ------- null}
- -t 1.1 -s 0 -d 4 -p ping -e 500000 -c 0 -i 25 -a 0 -x {0.0 5.0 -1 ------- null}
h -t 1.1 -s 0 -d 4 -p ping -e 500000 -c 0 -i 25 -a 0 -x {0.0 5.0 -1 ------- null}
+ -t 1.1 -s 2 -d 4 -p ping -e 7500 -c 0 -i 26 -a 0 -x {2.0 3.0 -1 ------- null}
- -t 1.1 -s 2 -d 4 -p ping -e 7500 -c 0 -i 26 -a 0 -x {2.0 3.0 -1 ------- null}
h -t 1.1 -s 2 -d 4 -p ping -e 7500 -c 0 -i 26 -a 0 -x {2.0 3.0 -1 ------- null}
r -t 1.14 -s 0 -d 4 -p ping -e 500000 -c 0 -i 15 -a 0 -x {0.0 5.0 -1 ------- null}
+ -t 1.14 -s 4 -d 5 -p ping -e 500000 -c 0 -i 15 -a 0 -x {0.0 5.0 -1 ------- null}
d -t 1.14 -s 4 -d 5 -p ping -e 500000 -c 0 -i 15 -a 0 -x {0.0 5.0 -1 ------- null}
r -t 1.16 -s 2 -d 4 -p ping -e 7500 -c 0 -i 16 -a 0 -x {2.0 3.0 -1 ------- null}
+ -t 1.16 -s 4 -d 3 -p ping -e 7500 -c 0 -i 16 -a 0 -x {2.0 3.0 -1 ------- null}
- -t 1.16 -s 4 -d 3 -p ping -e 7500 -c 0 -i 16 -a 0 -x {2.0 3.0 -1 ------- null}
h -t 1.16 -s 4 -d 3 -p ping -e 7500 -c 0 -i 16 -a 0 -x {2.0 3.0 -1 ------- null}
r -t 1.1606 -s 4 -d 3 -p ping -e 7500 -c 0 -i 9 -a 0 -x {2.0 3.0 -1 ------- null}
+ -t 1.1606 -s 3 -d 4 -p ping -e 64 -c 0 -i 27 -a 0 -x {3.0 2.0 -1 ------- null}
- -t 1.1606 -s 3 -d 4 -p ping -e 64 -c 0 -i 27 -a 0 -x {3.0 2.0 -1 ------- null}
h -t 1.1606 -s 3 -d 4 -p ping -e 64 -c 0 -i 27 -a 0 -x {3.0 2.0 -1 ------- null}
r -t 1.16060512 -s 3 -d 4 -p ping -e 64 -c 0 -i 17 -a 0 -x {3.0 2.0 -1 ------- null}
+ -t 1.16060512 -s 4 -d 2 -p ping -e 64 -c 0 -i 17 -a 0 -x {3.0 2.0 -1 ------- null}
- -t 1.16060512 -s 4 -d 2 -p ping -e 64 -c 0 -i 17 -a 0 -x {3.0 2.0 -1 ------- null}
h -t 1.16060512 -s 4 -d 2 -p ping -e 64 -c 0 -i 17 -a 0 -x {3.0 2.0 -1 ------- null}
+ -t 1.2 -s 0 -d 4 -p ping -e 500000 -c 0 -i 28 -a 0 -x {0.0 5.0 -1 ------- null}
- -t 1.2 -s 0 -d 4 -p ping -e 500000 -c 0 -i 28 -a 0 -x {0.0 5.0 -1 ------- null}
h -t 1.2 -s 0 -d 4 -p ping -e 500000 -c 0 -i 28 -a 0 -x {0.0 5.0 -1 ------- null}
+ -t 1.2 -s 2 -d 4 -p ping -e 7500 -c 0 -i 29 -a 0 -x {2.0 3.0 -1 ------- null}
- -t 1.2 -s 2 -d 4 -p ping -e 7500 -c 0 -i 29 -a 0 -x {2.0 3.0 -1 ------- null}
h -t 1.2 -s 2 -d 4 -p ping -e 7500 -c 0 -i 29 -a 0 -x {2.0 3.0 -1 ------- null}
r -t 1.24 -s 0 -d 4 -p ping -e 500000 -c 0 -i 18 -a 0 -x {0.0 5.0 -1 ------- null}
+ -t 1.24 -s 4 -d 5 -p ping -e 500000 -c 0 -i 18 -a 0 -x {0.0 5.0 -1 ------- null}
d -t 1.24 -s 4 -d 5 -p ping -e 500000 -c 0 -i 18 -a 0 -x {0.0 5.0 -1 ------- null}
r -t 1.26 -s 2 -d 4 -p ping -e 7500 -c 0 -i 19 -a 0 -x {2.0 3.0 -1 ------- null}
+ -t 1.26 -s 4 -d 3 -p ping -e 7500 -c 0 -i 19 -a 0 -x {2.0 3.0 -1 ------- null}
- -t 1.26 -s 4 -d 3 -p ping -e 7500 -c 0 -i 19 -a 0 -x {2.0 3.0 -1 ------- null}
h -t 1.26 -s 4 -d 3 -p ping -e 7500 -c 0 -i 19 -a 0 -x {2.0 3.0 -1 ------- null}
r -t 1.2606 -s 4 -d 3 -p ping -e 7500 -c 0 -i 11 -a 0 -x {2.0 3.0 -1 ------- null}
+ -t 1.2606 -s 3 -d 4 -p ping -e 64 -c 0 -i 30 -a 0 -x {3.0 2.0 -1 ------- null}
- -t 1.2606 -s 3 -d 4 -p ping -e 64 -c 0 -i 30 -a 0 -x {3.0 2.0 -1 ------- null}
h -t 1.2606 -s 3 -d 4 -p ping -e 64 -c 0 -i 30 -a 0 -x {3.0 2.0 -1 ------- null}
r -t 1.26060512 -s 3 -d 4 -p ping -e 64 -c 0 -i 20 -a 0 -x {3.0 2.0 -1 ------- null}
+ -t 1.26060512 -s 4 -d 2 -p ping -e 64 -c 0 -i 20 -a 0 -x {3.0 2.0 -1 ------- null}
- -t 1.26060512 -s 4 -d 2 -p ping -e 64 -c 0 -i 20 -a 0 -x {3.0 2.0 -1 ------- null}
h -t 1.26060512 -s 4 -d 2 -p ping -e 64 -c 0 -i 20 -a 0 -x {3.0 2.0 -1 ------- null}
+ -t 1.3 -s 0 -d 4 -p ping -e 500000 -c 0 -i 31 -a 0 -x {0.0 5.0 -1 ------- null}
- -t 1.3 -s 0 -d 4 -p ping -e 500000 -c 0 -i 31 -a 0 -x {0.0 5.0 -1 ------- null}
h -t 1.3 -s 0 -d 4 -p ping -e 500000 -c 0 -i 31 -a 0 -x {0.0 5.0 -1 ------- null}
+ -t 1.3 -s 2 -d 4 -p ping -e 7500 -c 0 -i 32 -a 0 -x {2.0 3.0 -1 ------- null}
- -t 1.3 -s 2 -d 4 -p ping -e 7500 -c 0 -i 32 -a 0 -x {2.0 3.0 -1 ------- null}
h -t 1.3 -s 2 -d 4 -p ping -e 7500 -c 0 -i 32 -a 0 -x {2.0 3.0 -1 ------- null}
r -t 1.34 -s 0 -d 4 -p ping -e 500000 -c 0 -i 21 -a 0 -x {0.0 5.0 -1 ------- null}
+ -t 1.34 -s 4 -d 5 -p ping -e 500000 -c 0 -i 21 -a 0 -x {0.0 5.0 -1 ------- null}
d -t 1.34 -s 4 -d 5 -p ping -e 500000 -c 0 -i 21 -a 0 -x {0.0 5.0 -1 ------- null}
r -t 1.36 -s 2 -d 4 -p ping -e 7500 -c 0 -i 23 -a 0 -x {2.0 3.0 -1 ------- null}
+ -t 1.36 -s 4 -d 3 -p ping -e 7500 -c 0 -i 23 -a 0 -x {2.0 3.0 -1 ------- null}
- -t 1.36 -s 4 -d 3 -p ping -e 7500 -c 0 -i 23 -a 0 -x {2.0 3.0 -1 ------- null}
h -t 1.36 -s 4 -d 3 -p ping -e 7500 -c 0 -i 23 -a 0 -x {2.0 3.0 -1 ------- null}
r -t 1.3606 -s 4 -d 3 -p ping -e 7500 -c 0 -i 13 -a 0 -x {2.0 3.0 -1 ------- null}
+ -t 1.3606 -s 3 -d 4 -p ping -e 64 -c 0 -i 33 -a 0 -x {3.0 2.0 -1 ------- null}
- -t 1.3606 -s 3 -d 4 -p ping -e 64 -c 0 -i 33 -a 0 -x {3.0 2.0 -1 ------- null}
h -t 1.3606 -s 3 -d 4 -p ping -e 64 -c 0 -i 33 -a 0 -x {3.0 2.0 -1 ------- null}
r -t 1.36060512 -s 3 -d 4 -p ping -e 64 -c 0 -i 24 -a 0 -x {3.0 2.0 -1 ------- null}
+ -t 1.36060512 -s 4 -d 2 -p ping -e 64 -c 0 -i 24 -a 0 -x {3.0 2.0 -1 ------- null}
- -t 1.36060512 -s 4 -d 2 -p ping -e 64 -c 0 -i 24 -a 0 -x {3.0 2.0 -1 ------- null}
h -t 1.36060512 -s 4 -d 2 -p ping -e 64 -c 0 -i 24 -a 0 -x {3.0 2.0 -1 ------- null}
r -t 1.36111712 -s 4 -d 2 -p ping -e 64 -c 0 -i 14 -a 0 -x {3.0 2.0 -1 ------- null}
r -t 1.38 -s 0 -d 4 -p ping -e 500000 -c 0 -i 22 -a 0 -x {0.0 5.0 -1 ------- null}
+ -t 1.38 -s 4 -d 5 -p ping -e 500000 -c 0 -i 22 -a 0 -x {0.0 5.0 -1 ------- null}
d -t 1.38 -s 4 -d 5 -p ping -e 500000 -c 0 -i 22 -a 0 -x {0.0 5.0 -1 ------- null}
+ -t 1.4 -s 0 -d 4 -p ping -e 500000 -c 0 -i 34 -a 0 -x {0.0 5.0 -1 ------- null}
- -t 1.4 -s 0 -d 4 -p ping -e 500000 -c 0 -i 34 -a 0 -x {0.0 5.0 -1 ------- null}
h -t 1.4 -s 0 -d 4 -p ping -e 500000 -c 0 -i 34 -a 0 -x {0.0 5.0 -1 ------- null}
+ -t 1.4 -s 2 -d 4 -p ping -e 7500 -c 0 -i 35 -a 0 -x {2.0 3.0 -1 ------- null}
- -t 1.4 -s 2 -d 4 -p ping -e 7500 -c 0 -i 35 -a 0 -x {2.0 3.0 -1 ------- null}
h -t 1.4 -s 2 -d 4 -p ping -e 7500 -c 0 -i 35 -a 0 -x {2.0 3.0 -1 ------- null}
r -t 1.44 -s 0 -d 4 -p ping -e 500000 -c 0 -i 25 -a 0 -x {0.0 5.0 -1 ------- null}
+ -t 1.44 -s 4 -d 5 -p ping -e 500000 -c 0 -i 25 -a 0 -x {0.0 5.0 -1 ------- null}
d -t 1.44 -s 4 -d 5 -p ping -e 500000 -c 0 -i 25 -a 0 -x {0.0 5.0 -1 ------- null}
r -t 1.46 -s 2 -d 4 -p ping -e 7500 -c 0 -i 26 -a 0 -x {2.0 3.0 -1 ------- null}
+ -t 1.46 -s 4 -d 3 -p ping -e 7500 -c 0 -i 26 -a 0 -x {2.0 3.0 -1 ------- null}
- -t 1.46 -s 4 -d 3 -p ping -e 7500 -c 0 -i 26 -a 0 -x {2.0 3.0 -1 ------- null}
h -t 1.46 -s 4 -d 3 -p ping -e 7500 -c 0 -i 26 -a 0 -x {2.0 3.0 -1 ------- null}
r -t 1.4606 -s 4 -d 3 -p ping -e 7500 -c 0 -i 16 -a 0 -x {2.0 3.0 -1 ------- null}
+ -t 1.4606 -s 3 -d 4 -p ping -e 64 -c 0 -i 36 -a 0 -x {3.0 2.0 -1 ------- null}
- -t 1.4606 -s 3 -d 4 -p ping -e 64 -c 0 -i 36 -a 0 -x {3.0 2.0 -1 ------- null}
h -t 1.4606 -s 3 -d 4 -p ping -e 64 -c 0 -i 36 -a 0 -x {3.0 2.0 -1 ------- null}
r -t 1.46060512 -s 3 -d 4 -p ping -e 64 -c 0 -i 27 -a 0 -x {3.0 2.0 -1 ------- null}
+ -t 1.46060512 -s 4 -d 2 -p ping -e 64 -c 0 -i 27 -a 0 -x {3.0 2.0 -1 ------- null}
- -t 1.46060512 -s 4 -d 2 -p ping -e 64 -c 0 -i 27 -a 0 -x {3.0 2.0 -1 ------- null}
h -t 1.46060512 -s 4 -d 2 -p ping -e 64 -c 0 -i 27 -a 0 -x {3.0 2.0 -1 ------- null}
r -t 1.46111712 -s 4 -d 2 -p ping -e 64 -c 0 -i 17 -a 0 -x {3.0 2.0 -1 ------- null}
+ -t 1.5 -s 0 -d 4 -p ping -e 500000 -c 0 -i 37 -a 0 -x {0.0 5.0 -1 ------- null}
- -t 1.5 -s 0 -d 4 -p ping -e 500000 -c 0 -i 37 -a 0 -x {0.0 5.0 -1 ------- null}
h -t 1.5 -s 0 -d 4 -p ping -e 500000 -c 0 -i 37 -a 0 -x {0.0 5.0 -1 ------- null}
+ -t 1.5 -s 2 -d 4 -p ping -e 7500 -c 0 -i 38 -a 0 -x {2.0 3.0 -1 ------- null}
- -t 1.5 -s 2 -d 4 -p ping -e 7500 -c 0 -i 38 -a 0 -x {2.0 3.0 -1 ------- null}
h -t 1.5 -s 2 -d 4 -p ping -e 7500 -c 0 -i 38 -a 0 -x {2.0 3.0 -1 ------- null}
r -t 1.54 -s 0 -d 4 -p ping -e 500000 -c 0 -i 28 -a 0 -x {0.0 5.0 -1 ------- null}
+ -t 1.54 -s 4 -d 5 -p ping -e 500000 -c 0 -i 28 -a 0 -x {0.0 5.0 -1 ------- null}
d -t 1.54 -s 4 -d 5 -p ping -e 500000 -c 0 -i 28 -a 0 -x {0.0 5.0 -1 ------- null}
r -t 1.56 -s 2 -d 4 -p ping -e 7500 -c 0 -i 29 -a 0 -x {2.0 3.0 -1 ------- null}
+ -t 1.56 -s 4 -d 3 -p ping -e 7500 -c 0 -i 29 -a 0 -x {2.0 3.0 -1 ------- null}
- -t 1.56 -s 4 -d 3 -p ping -e 7500 -c 0 -i 29 -a 0 -x {2.0 3.0 -1 ------- null}
h -t 1.56 -s 4 -d 3 -p ping -e 7500 -c 0 -i 29 -a 0 -x {2.0 3.0 -1 ------- null}
r -t 1.5606 -s 4 -d 3 -p ping -e 7500 -c 0 -i 19 -a 0 -x {2.0 3.0 -1 ------- null}
+ -t 1.5606 -s 3 -d 4 -p ping -e 64 -c 0 -i 39 -a 0 -x {3.0 2.0 -1 ------- null}
- -t 1.5606 -s 3 -d 4 -p ping -e 64 -c 0 -i 39 -a 0 -x {3.0 2.0 -1 ------- null}
h -t 1.5606 -s 3 -d 4 -p ping -e 64 -c 0 -i 39 -a 0 -x {3.0 2.0 -1 ------- null}
r -t 1.56060512 -s 3 -d 4 -p ping -e 64 -c 0 -i 30 -a 0 -x {3.0 2.0 -1 ------- null}
+ -t 1.56060512 -s 4 -d 2 -p ping -e 64 -c 0 -i 30 -a 0 -x {3.0 2.0 -1 ------- null}
- -t 1.56060512 -s 4 -d 2 -p ping -e 64 -c 0 -i 30 -a 0 -x {3.0 2.0 -1 ------- null}
h -t 1.56060512 -s 4 -d 2 -p ping -e 64 -c 0 -i 30 -a 0 -x {3.0 2.0 -1 ------- null}
r -t 1.56111712 -s 4 -d 2 -p ping -e 64 -c 0 -i 20 -a 0 -x {3.0 2.0 -1 ------- null}
+ -t 1.6 -s 0 -d 4 -p ping -e 500000 -c 0 -i 40 -a 0 -x {0.0 5.0 -1 ------- null}
- -t 1.6 -s 0 -d 4 -p ping -e 500000 -c 0 -i 40 -a 0 -x {0.0 5.0 -1 ------- null}
h -t 1.6 -s 0 -d 4 -p ping -e 500000 -c 0 -i 40 -a 0 -x {0.0 5.0 -1 ------- null}
+ -t 1.6 -s 2 -d 4 -p ping -e 7500 -c 0 -i 41 -a 0 -x {2.0 3.0 -1 ------- null}
- -t 1.6 -s 2 -d 4 -p ping -e 7500 -c 0 -i 41 -a 0 -x {2.0 3.0 -1 ------- null}
h -t 1.6 -s 2 -d 4 -p ping -e 7500 -c 0 -i 41 -a 0 -x {2.0 3.0 -1 ------- null}
r -t 1.64 -s 0 -d 4 -p ping -e 500000 -c 0 -i 31 -a 0 -x {0.0 5.0 -1 ------- null}
+ -t 1.64 -s 4 -d 5 -p ping -e 500000 -c 0 -i 31 -a 0 -x {0.0 5.0 -1 ------- null}
d -t 1.64 -s 4 -d 5 -p ping -e 500000 -c 0 -i 31 -a 0 -x {0.0 5.0 -1 ------- null}
r -t 1.66 -s 2 -d 4 -p ping -e 7500 -c 0 -i 32 -a 0 -x {2.0 3.0 -1 ------- null}
+ -t 1.66 -s 4 -d 3 -p ping -e 7500 -c 0 -i 32 -a 0 -x {2.0 3.0 -1 ------- null}
- -t 1.66 -s 4 -d 3 -p ping -e 7500 -c 0 -i 32 -a 0 -x {2.0 3.0 -1 ------- null}
h -t 1.66 -s 4 -d 3 -p ping -e 7500 -c 0 -i 32 -a 0 -x {2.0 3.0 -1 ------- null}
r -t 1.6606 -s 4 -d 3 -p ping -e 7500 -c 0 -i 23 -a 0 -x {2.0 3.0 -1 ------- null}
+ -t 1.6606 -s 3 -d 4 -p ping -e 64 -c 0 -i 42 -a 0 -x {3.0 2.0 -1 ------- null}
- -t 1.6606 -s 3 -d 4 -p ping -e 64 -c 0 -i 42 -a 0 -x {3.0 2.0 -1 ------- null}
h -t 1.6606 -s 3 -d 4 -p ping -e 64 -c 0 -i 42 -a 0 -x {3.0 2.0 -1 ------- null}
r -t 1.66060512 -s 3 -d 4 -p ping -e 64 -c 0 -i 33 -a 0 -x {3.0 2.0 -1 ------- null}
+ -t 1.66060512 -s 4 -d 2 -p ping -e 64 -c 0 -i 33 -a 0 -x {3.0 2.0 -1 ------- null}
- -t 1.66060512 -s 4 -d 2 -p ping -e 64 -c 0 -i 33 -a 0 -x {3.0 2.0 -1 ------- null}
h -t 1.66060512 -s 4 -d 2 -p ping -e 64 -c 0 -i 33 -a 0 -x {3.0 2.0 -1 ------- null}
r -t 1.66111712 -s 4 -d 2 -p ping -e 64 -c 0 -i 24 -a 0 -x {3.0 2.0 -1 ------- null}
+ -t 1.7 -s 0 -d 4 -p ping -e 500000 -c 0 -i 43 -a 0 -x {0.0 5.0 -1 ------- null}
- -t 1.7 -s 0 -d 4 -p ping -e 500000 -c 0 -i 43 -a 0 -x {0.0 5.0 -1 ------- null}
h -t 1.7 -s 0 -d 4 -p ping -e 500000 -c 0 -i 43 -a 0 -x {0.0 5.0 -1 ------- null}
+ -t 1.7 -s 2 -d 4 -p ping -e 7500 -c 0 -i 44 -a 0 -x {2.0 3.0 -1 ------- null}
- -t 1.7 -s 2 -d 4 -p ping -e 7500 -c 0 -i 44 -a 0 -x {2.0 3.0 -1 ------- null}
h -t 1.7 -s 2 -d 4 -p ping -e 7500 -c 0 -i 44 -a 0 -x {2.0 3.0 -1 ------- null}
r -t 1.74 -s 0 -d 4 -p ping -e 500000 -c 0 -i 34 -a 0 -x {0.0 5.0 -1 ------- null}
+ -t 1.74 -s 4 -d 5 -p ping -e 500000 -c 0 -i 34 -a 0 -x {0.0 5.0 -1 ------- null}
d -t 1.74 -s 4 -d 5 -p ping -e 500000 -c 0 -i 34 -a 0 -x {0.0 5.0 -1 ------- null}
r -t 1.76 -s 2 -d 4 -p ping -e 7500 -c 0 -i 35 -a 0 -x {2.0 3.0 -1 ------- null}
+ -t 1.76 -s 4 -d 3 -p ping -e 7500 -c 0 -i 35 -a 0 -x {2.0 3.0 -1 ------- null}
- -t 1.76 -s 4 -d 3 -p ping -e 7500 -c 0 -i 35 -a 0 -x {2.0 3.0 -1 ------- null}
h -t 1.76 -s 4 -d 3 -p ping -e 7500 -c 0 -i 35 -a 0 -x {2.0 3.0 -1 ------- null}
r -t 1.7606 -s 4 -d 3 -p ping -e 7500 -c 0 -i 26 -a 0 -x {2.0 3.0 -1 ------- null}
+ -t 1.7606 -s 3 -d 4 -p ping -e 64 -c 0 -i 45 -a 0 -x {3.0 2.0 -1 ------- null}
- -t 1.7606 -s 3 -d 4 -p ping -e 64 -c 0 -i 45 -a 0 -x {3.0 2.0 -1 ------- null}
h -t 1.7606 -s 3 -d 4 -p ping -e 64 -c 0 -i 45 -a 0 -x {3.0 2.0 -1 ------- null}
r -t 1.76060512 -s 3 -d 4 -p ping -e 64 -c 0 -i 36 -a 0 -x {3.0 2.0 -1 ------- null}
+ -t 1.76060512 -s 4 -d 2 -p ping -e 64 -c 0 -i 36 -a 0 -x {3.0 2.0 -1 ------- null}
- -t 1.76060512 -s 4 -d 2 -p ping -e 64 -c 0 -i 36 -a 0 -x {3.0 2.0 -1 ------- null}
h -t 1.76060512 -s 4 -d 2 -p ping -e 64 -c 0 -i 36 -a 0 -x {3.0 2.0 -1 ------- null}
r -t 1.76111712 -s 4 -d 2 -p ping -e 64 -c 0 -i 27 -a 0 -x {3.0 2.0 -1 ------- null}
+ -t 1.8 -s 0 -d 4 -p ping -e 500000 -c 0 -i 46 -a 0 -x {0.0 5.0 -1 ------- null}
- -t 1.8 -s 0 -d 4 -p ping -e 500000 -c 0 -i 46 -a 0 -x {0.0 5.0 -1 ------- null}
h -t 1.8 -s 0 -d 4 -p ping -e 500000 -c 0 -i 46 -a 0 -x {0.0 5.0 -1 ------- null}
+ -t 1.8 -s 2 -d 4 -p ping -e 7500 -c 0 -i 47 -a 0 -x {2.0 3.0 -1 ------- null}
- -t 1.8 -s 2 -d 4 -p ping -e 7500 -c 0 -i 47 -a 0 -x {2.0 3.0 -1 ------- null}
h -t 1.8 -s 2 -d 4 -p ping -e 7500 -c 0 -i 47 -a 0 -x {2.0 3.0 -1 ------- null}
r -t 1.84 -s 0 -d 4 -p ping -e 500000 -c 0 -i 37 -a 0 -x {0.0 5.0 -1 ------- null}
+ -t 1.84 -s 4 -d 5 -p ping -e 500000 -c 0 -i 37 -a 0 -x {0.0 5.0 -1 ------- null}
d -t 1.84 -s 4 -d 5 -p ping -e 500000 -c 0 -i 37 -a 0 -x {0.0 5.0 -1 ------- null}
r -t 1.86 -s 2 -d 4 -p ping -e 7500 -c 0 -i 38 -a 0 -x {2.0 3.0 -1 ------- null}
+ -t 1.86 -s 4 -d 3 -p ping -e 7500 -c 0 -i 38 -a 0 -x {2.0 3.0 -1 ------- null}
- -t 1.86 -s 4 -d 3 -p ping -e 7500 -c 0 -i 38 -a 0 -x {2.0 3.0 -1 ------- null}
h -t 1.86 -s 4 -d 3 -p ping -e 7500 -c 0 -i 38 -a 0 -x {2.0 3.0 -1 ------- null}
r -t 1.8606 -s 4 -d 3 -p ping -e 7500 -c 0 -i 29 -a 0 -x {2.0 3.0 -1 ------- null}
+ -t 1.8606 -s 3 -d 4 -p ping -e 64 -c 0 -i 48 -a 0 -x {3.0 2.0 -1 ------- null}
- -t 1.8606 -s 3 -d 4 -p ping -e 64 -c 0 -i 48 -a 0 -x {3.0 2.0 -1 ------- null}
h -t 1.8606 -s 3 -d 4 -p ping -e 64 -c 0 -i 48 -a 0 -x {3.0 2.0 -1 ------- null}
r -t 1.86060512 -s 3 -d 4 -p ping -e 64 -c 0 -i 39 -a 0 -x {3.0 2.0 -1 ------- null}
+ -t 1.86060512 -s 4 -d 2 -p ping -e 64 -c 0 -i 39 -a 0 -x {3.0 2.0 -1 ------- null}
- -t 1.86060512 -s 4 -d 2 -p ping -e 64 -c 0 -i 39 -a 0 -x {3.0 2.0 -1 ------- null}
h -t 1.86060512 -s 4 -d 2 -p ping -e 64 -c 0 -i 39 -a 0 -x {3.0 2.0 -1 ------- null}
r -t 1.86111712 -s 4 -d 2 -p ping -e 64 -c 0 -i 30 -a 0 -x {3.0 2.0 -1 ------- null}
r -t 1.94 -s 0 -d 4 -p ping -e 500000 -c 0 -i 40 -a 0 -x {0.0 5.0 -1 ------- null}
+ -t 1.94 -s 4 -d 5 -p ping -e 500000 -c 0 -i 40 -a 0 -x {0.0 5.0 -1 ------- null}
d -t 1.94 -s 4 -d 5 -p ping -e 500000 -c 0 -i 40 -a 0 -x {0.0 5.0 -1 ------- null}
r -t 1.96 -s 2 -d 4 -p ping -e 7500 -c 0 -i 41 -a 0 -x {2.0 3.0 -1 ------- null}
+ -t 1.96 -s 4 -d 3 -p ping -e 7500 -c 0 -i 41 -a 0 -x {2.0 3.0 -1 ------- null}
- -t 1.96 -s 4 -d 3 -p ping -e 7500 -c 0 -i 41 -a 0 -x {2.0 3.0 -1 ------- null}
h -t 1.96 -s 4 -d 3 -p ping -e 7500 -c 0 -i 41 -a 0 -x {2.0 3.0 -1 ------- null}
r -t 1.9606 -s 4 -d 3 -p ping -e 7500 -c 0 -i 32 -a 0 -x {2.0 3.0 -1 ------- null}
+ -t 1.9606 -s 3 -d 4 -p ping -e 64 -c 0 -i 49 -a 0 -x {3.0 2.0 -1 ------- null}
- -t 1.9606 -s 3 -d 4 -p ping -e 64 -c 0 -i 49 -a 0 -x {3.0 2.0 -1 ------- null}
h -t 1.9606 -s 3 -d 4 -p ping -e 64 -c 0 -i 49 -a 0 -x {3.0 2.0 -1 ------- null}
r -t 1.96060512 -s 3 -d 4 -p ping -e 64 -c 0 -i 42 -a 0 -x {3.0 2.0 -1 ------- null}
+ -t 1.96060512 -s 4 -d 2 -p ping -e 64 -c 0 -i 42 -a 0 -x {3.0 2.0 -1 ------- null}
- -t 1.96060512 -s 4 -d 2 -p ping -e 64 -c 0 -i 42 -a 0 -x {3.0 2.0 -1 ------- null}
h -t 1.96060512 -s 4 -d 2 -p ping -e 64 -c 0 -i 42 -a 0 -x {3.0 2.0 -1 ------- null}
r -t 1.96111712 -s 4 -d 2 -p ping -e 64 -c 0 -i 33 -a 0 -x {3.0 2.0 -1 ------- null}
r -t 2.04 -s 0 -d 4 -p ping -e 500000 -c 0 -i 43 -a 0 -x {0.0 5.0 -1 ------- null}
+ -t 2.04 -s 4 -d 5 -p ping -e 500000 -c 0 -i 43 -a 0 -x {0.0 5.0 -1 ------- null}
d -t 2.04 -s 4 -d 5 -p ping -e 500000 -c 0 -i 43 -a 0 -x {0.0 5.0 -1 ------- null}
r -t 2.06 -s 2 -d 4 -p ping -e 7500 -c 0 -i 44 -a 0 -x {2.0 3.0 -1 ------- null}
+ -t 2.06 -s 4 -d 3 -p ping -e 7500 -c 0 -i 44 -a 0 -x {2.0 3.0 -1 ------- null}
- -t 2.06 -s 4 -d 3 -p ping -e 7500 -c 0 -i 44 -a 0 -x {2.0 3.0 -1 ------- null}
h -t 2.06 -s 4 -d 3 -p ping -e 7500 -c 0 -i 44 -a 0 -x {2.0 3.0 -1 ------- null}
r -t 2.0606 -s 4 -d 3 -p ping -e 7500 -c 0 -i 35 -a 0 -x {2.0 3.0 -1 ------- null}
+ -t 2.0606 -s 3 -d 4 -p ping -e 64 -c 0 -i 50 -a 0 -x {3.0 2.0 -1 ------- null}
- -t 2.0606 -s 3 -d 4 -p ping -e 64 -c 0 -i 50 -a 0 -x {3.0 2.0 -1 ------- null}
h -t 2.0606 -s 3 -d 4 -p ping -e 64 -c 0 -i 50 -a 0 -x {3.0 2.0 -1 ------- null}
r -t 2.06060512 -s 3 -d 4 -p ping -e 64 -c 0 -i 45 -a 0 -x {3.0 2.0 -1 ------- null}
+ -t 2.06060512 -s 4 -d 2 -p ping -e 64 -c 0 -i 45 -a 0 -x {3.0 2.0 -1 ------- null}
- -t 2.06060512 -s 4 -d 2 -p ping -e 64 -c 0 -i 45 -a 0 -x {3.0 2.0 -1 ------- null}
h -t 2.06060512 -s 4 -d 2 -p ping -e 64 -c 0 -i 45 -a 0 -x {3.0 2.0 -1 ------- null}
r -t 2.06111712 -s 4 -d 2 -p ping -e 64 -c 0 -i 36 -a 0 -x {3.0 2.0 -1 ------- null}
r -t 2.14 -s 0 -d 4 -p ping -e 500000 -c 0 -i 46 -a 0 -x {0.0 5.0 -1 ------- null}
+ -t 2.14 -s 4 -d 5 -p ping -e 500000 -c 0 -i 46 -a 0 -x {0.0 5.0 -1 ------- null}
d -t 2.14 -s 4 -d 5 -p ping -e 500000 -c 0 -i 46 -a 0 -x {0.0 5.0 -1 ------- null}
r -t 2.16 -s 2 -d 4 -p ping -e 7500 -c 0 -i 47 -a 0 -x {2.0 3.0 -1 ------- null}
+ -t 2.16 -s 4 -d 3 -p ping -e 7500 -c 0 -i 47 -a 0 -x {2.0 3.0 -1 ------- null}
- -t 2.16 -s 4 -d 3 -p ping -e 7500 -c 0 -i 47 -a 0 -x {2.0 3.0 -1 ------- null}
h -t 2.16 -s 4 -d 3 -p ping -e 7500 -c 0 -i 47 -a 0 -x {2.0 3.0 -1 ------- null}
r -t 2.1606 -s 4 -d 3 -p ping -e 7500 -c 0 -i 38 -a 0 -x {2.0 3.0 -1 ------- null}
+ -t 2.1606 -s 3 -d 4 -p ping -e 64 -c 0 -i 51 -a 0 -x {3.0 2.0 -1 ------- null}
- -t 2.1606 -s 3 -d 4 -p ping -e 64 -c 0 -i 51 -a 0 -x {3.0 2.0 -1 ------- null}
h -t 2.1606 -s 3 -d 4 -p ping -e 64 -c 0 -i 51 -a 0 -x {3.0 2.0 -1 ------- null}
r -t 2.16060512 -s 3 -d 4 -p ping -e 64 -c 0 -i 48 -a 0 -x {3.0 2.0 -1 ------- null}
+ -t 2.16060512 -s 4 -d 2 -p ping -e 64 -c 0 -i 48 -a 0 -x {3.0 2.0 -1 ------- null}
- -t 2.16060512 -s 4 -d 2 -p ping -e 64 -c 0 -i 48 -a 0 -x {3.0 2.0 -1 ------- null}