+ 0.1 0 4 ping 500000 ------- 0 0.0 5.0 -1 0
- 0.1 0 4 ping 500000 ------- 0 0.0 5.0 -1 0
+ 0.1 2 4 ping 7500 ------- 0 2.0 3.0 -1 1
- 0.1 2 4 ping 7500 ------- 0 2.0 3.0 -1 1
+ 0.2 0 4 ping 500000 ------- 0 0.0 5.0 -1 2
- 0.2 0 4 ping 500000 ------- 0 0.0 5.0 -1 2
+ 0.2 2 4 ping 7500 ------- 0 2.0 3.0 -1 3
- 0.2 2 4 ping 7500 ------- 0 2.0 3.0 -1 3
+ 0.3 0 4 ping 500000 ------- 0 0.0 5.0 -1 4
- 0.3 0 4 ping 500000 ------- 0 0.0 5.0 -1 4
+ 0.3 2 4 ping 7500 ------- 0 2.0 3.0 -1 5
- 0.3 2 4 ping 7500 ------- 0 2.0 3.0 -1 5
+ 0.4 0 4 ping 500000 ------- 0 0.0 5.0 -1 6
- 0.4 0 4 ping 500000 ------- 0 0.0 5.0 -1 6
+ 0.4 2 4 ping 7500 ------- 0 2.0 3.0 -1 7
- 0.4 2 4 ping 7500 ------- 0 2.0 3.0 -1 7
r 0.44 0 4 ping 500000 ------- 0 0.0 5.0 -1 0
+ 0.44 4 5 ping 500000 ------- 0 0.0 5.0 -1 0
- 0.44 4 5 ping 500000 ------- 0 0.0 5.0 -1 0
r 0.46 2 4 ping 7500 ------- 0 2.0 3.0 -1 1
+ 0.46 4 3 ping 7500 ------- 0 2.0 3.0 -1 1
- 0.46 4 3 ping 7500 ------- 0 2.0 3.0 -1 1
+ 0.5 0 4 ping 500000 ------- 0 0.0 5.0 -1 8
- 0.5 0 4 ping 500000 ------- 0 0.0 5.0 -1 8
+ 0.5 2 4 ping 7500 ------- 0 2.0 3.0 -1 9
- 0.5 2 4 ping 7500 ------- 0 2.0 3.0 -1 9
r 0.54 0 4 ping 500000 ------- 0 0.0 5.0 -1 2
+ 0.54 4 5 ping 500000 ------- 0 0.0 5.0 -1 2
r 0.56 2 4 ping 7500 ------- 0 2.0 3.0 -1 3
+ 0.56 4 3 ping 7500 ------- 0 2.0 3.0 -1 3
- 0.56 4 3 ping 7500 ------- 0 2.0 3.0 -1 3
+ 0.6 0 4 ping 500000 ------- 0 0.0 5.0 -1 10
- 0.6 0 4 ping 500000 ------- 0 0.0 5.0 -1 10
+ 0.6 2 4 ping 7500 ------- 0 2.0 3.0 -1 11
- 0.6 2 4 ping 7500 ------- 0 2.0 3.0 -1 11
r 0.64 0 4 ping 500000 ------- 0 0.0 5.0 -1 4
+ 0.64 4 5 ping 500000 ------- 0 0.0 5.0 -1 4
d 0.64 4 5 ping 500000 ------- 0 0.0 5.0 -1 4
r 0.66 2 4 ping 7500 ------- 0 2.0 3.0 -1 5
+ 0.66 4 3 ping 7500 ------- 0 2.0 3.0 -1 5
- 0.66 4 3 ping 7500 ------- 0 2.0 3.0 -1 5
+ 0.7 0 4 ping 500000 ------- 0 0.0 5.0 -1 12
- 0.7 0 4 ping 500000 ------- 0 0.0 5.0 -1 12
+ 0.7 2 4 ping 7500 ------- 0 2.0 3.0 -1 13
- 0.7 2 4 ping 7500 ------- 0 2.0 3.0 -1 13
r 0.74 0 4 ping 500000 ------- 0 0.0 5.0 -1 6
+ 0.74 4 5 ping 500000 ------- 0 0.0 5.0 -1 6
d 0.74 4 5 ping 500000 ------- 0 0.0 5.0 -1 6
r 0.76 2 4 ping 7500 ------- 0 2.0 3.0 -1 7
+ 0.76 4 3 ping 7500 ------- 0 2.0 3.0 -1 7
- 0.76 4 3 ping 7500 ------- 0 2.0 3.0 -1 7
r 0.7606 4 3 ping 7500 ------- 0 2.0 3.0 -1 1
+ 0.7606 3 4 ping 64 ------- 0 3.0 2.0 -1 14
- 0.7606 3 4 ping 64 ------- 0 3.0 2.0 -1 14
+ 0.8 0 4 ping 500000 ------- 0 0.0 5.0 -1 15
- 0.8 0 4 ping 500000 ------- 0 0.0 5.0 -1 15
+ 0.8 2 4 ping 7500 ------- 0 2.0 3.0 -1 16
- 0.8 2 4 ping 7500 ------- 0 2.0 3.0 -1 16
r 0.84 0 4 ping 500000 ------- 0 0.0 5.0 -1 8
+ 0.84 4 5 ping 500000 ------- 0 0.0 5.0 -1 8
d 0.84 4 5 ping 500000 ------- 0 0.0 5.0 -1 8
r 0.86 2 4 ping 7500 ------- 0 2.0 3.0 -1 9
+ 0.86 4 3 ping 7500 ------- 0 2.0 3.0 -1 9
- 0.86 4 3 ping 7500 ------- 0 2.0 3.0 -1 9
r 0.8606 4 3 ping 7500 ------- 0 2.0 3.0 -1 3
+ 0.8606 3 4 ping 64 ------- 0 3.0 2.0 -1 17
- 0.8606 3 4 ping 64 ------- 0 3.0 2.0 -1 17
+ 0.9 0 4 ping 500000 ------- 0 0.0 5.0 -1 18
- 0.9 0 4 ping 500000 ------- 0 0.0 5.0 -1 18
+ 0.9 2 4 ping 7500 ------- 0 2.0 3.0 -1 19
- 0.9 2 4 ping 7500 ------- 0 2.0 3.0 -1 19
r 0.94 0 4 ping 500000 ------- 0 0.0 5.0 -1 10
+ 0.94 4 5 ping 500000 ------- 0 0.0 5.0 -1 10
d 0.94 4 5 ping 500000 ------- 0 0.0 5.0 -1 10
r 0.96 2 4 ping 7500 ------- 0 2.0 3.0 -1 11
+ 0.96 4 3 ping 7500 ------- 0 2.0 3.0 -1 11
- 0.96 4 3 ping 7500 ------- 0 2.0 3.0 -1 11
r 0.9606 4 3 ping 7500 ------- 0 2.0 3.0 -1 5
+ 0.9606 3 4 ping 64 ------- 0 3.0 2.0 -1 20
- 0.9606 3 4 ping 64 ------- 0 3.0 2.0 -1 20
+ 1 0 4 ping 500000 ------- 0 0.0 5.0 -1 21
- 1 0 4 ping 500000 ------- 0 0.0 5.0 -1 21
+ 1 0 4 ping 500000 ------- 0 0.0 5.0 -1 22
+ 1 2 4 ping 7500 ------- 0 2.0 3.0 -1 23
- 1 2 4 ping 7500 ------- 0 2.0 3.0 -1 23
r 1.04 0 4 ping 500000 ------- 0 0.0 5.0 -1 12
+ 1.04 4 5 ping 500000 ------- 0 0.0 5.0 -1 12
d 1.04 4 5 ping 500000 ------- 0 0.0 5.0 -1 12
- 1.04 0 4 ping 500000 ------- 0 0.0 5.0 -1 22
r 1.06 2 4 ping 7500 ------- 0 2.0 3.0 -1 13
+ 1.06 4 3 ping 7500 ------- 0 2.0 3.0 -1 13
- 1.06 4 3 ping 7500 ------- 0 2.0 3.0 -1 13
r 1.0606 4 3 ping 7500 ------- 0 2.0 3.0 -1 7
+ 1.0606 3 4 ping 64 ------- 0 3.0 2.0 -1 24
- 1.0606 3 4 ping 64 ------- 0 3.0 2.0 -1 24
r 1.060605 3 4 ping 64 ------- 0 3.0 2.0 -1 14
+ 1.060605 4 2 ping 64 ------- 0 3.0 2.0 -1 14
- 1.060605 4 2 ping 64 ------- 0 3.0 2.0 -1 14
+ 1.1 0 4 ping 500000 ------- 0 0.0 5.0 -1 25
- 1.1 0 4 ping 500000 ------- 0 0.0 5.0 -1 25
+ 1.1 2 4 ping 7500 ------- 0 2.0 3.0 -1 26
- 1.1 2 4 ping 7500 ------- 0 2.0 3.0 -1 26
r 1.14 0 4 ping 500000 ------- 0 0.0 5.0 -1 15
+ 1.14 4 5 ping 500000 ------- 0 0.0 5.0 -1 15
d 1.14 4 5 ping 500000 ------- 0 0.0 5.0 -1 15
r 1.16 2 4 ping 7500 ------- 0 2.0 3.0 -1 16
+ 1.16 4 3 ping 7500 ------- 0 2.0 3.0 -1 16
- 1.16 4 3 ping 7500 ------- 0 2.0 3.0 -1 16
r 1.1606 4 3 ping 7500 ------- 0 2.0 3.0 -1 9
+ 1.1606 3 4 ping 64 ------- 0 3.0 2.0 -1 27
- 1.1606 3 4 ping 64 ------- 0 3.0 2.0 -1 27
r 1.160605 3 4 ping 64 ------- 0 3.0 2.0 -1 17
+ 1.160605 4 2 ping 64 ------- 0 3.0 2.0 -1 17
- 1.160605 4 2 ping 64 ------- 0 3.0 2.0 -1 17
+ 1.2 0 4 ping 500000 ------- 0 0.0 5.0 -1 28
- 1.2 0 4 ping 500000 ------- 0 0.0 5.0 -1 28
+ 1.2 2 4 ping 7500 ------- 0 2.0 3.0 -1 29
- 1.2 2 4 ping 7500 ------- 0 2.0 3.0 -1 29
r 1.24 0 4 ping 500000 ------- 0 0.0 5.0 -1 18
+ 1.24 4 5 ping 500000 ------- 0 0.0 5.0 -1 18
d 1.24 4 5 ping 500000 ------- 0 0.0 5.0 -1 18
r 1.26 2 4 ping 7500 ------- 0 2.0 3.0 -1 19
+ 1.26 4 3 ping 7500 ------- 0 2.0 3.0 -1 19
- 1.26 4 3 ping 7500 ------- 0 2.0 3.0 -1 19
r 1.2606 4 3 ping 7500 ------- 0 2.0 3.0 -1 11
+ 1.2606 3 4 ping 64 ------- 0 3.0 2.0 -1 30
- 1.2606 3 4 ping 64 ------- 0 3.0 2.0 -1 30
r 1.260605 3 4 ping 64 ------- 0 3.0 2.0 -1 20
+ 1.260605 4 2 ping 64 ------- 0 3.0 2.0 -1 20
- 1.260605 4 2 ping 64 ------- 0 3.0 2.0 -1 20
+ 1.3 0 4 ping 500000 ------- 0 0.0 5.0 -1 31
- 1.3 0 4 ping 500000 ------- 0 0.0 5.0 -1 31
+ 1.3 2 4 ping 7500 ------- 0 2.0 3.0 -1 32
- 1.3 2 4 ping 7500 ------- 0 2.0 3.0 -1 32
r 1.34 0 4 ping 500000 ------- 0 0.0 5.0 -1 21
+ 1.34 4 5 ping 500000 ------- 0 0.0 5.0 -1 21
d 1.34 4 5 ping 500000 ------- 0 0.0 5.0 -1 21
r 1.36 2 4 ping 7500 ------- 0 2.0 3.0 -1 23
+ 1.36 4 3 ping 7500 ------- 0 2.0 3.0 -1 23
- 1.36 4 3 ping 7500 ------- 0 2.0 3.0 -1 23
r 1.3606 4 3 ping 7500 ------- 0 2.0 3.0 -1 13
+ 1.3606 3 4 ping 64 ------- 0 3.0 2.0 -1 33
- 1.3606 3 4 ping 64 ------- 0 3.0 2.0 -1 33
r 1.360605 3 4 ping 64 ------- 0 3.0 2.0 -1 24
+ 1.360605 4 2 ping 64 ------- 0 3.0 2.0 -1 24
- 1.360605 4 2 ping 64 ------- 0 3.0 2.0 -1 24
r 1.361117 4 2 ping 64 ------- 0 3.0 2.0 -1 14
r 1.38 0 4 ping 500000 ------- 0 0.0 5.0 -1 22
+ 1.38 4 5 ping 500000 ------- 0 0.0 5.0 -1 22
d 1.38 4 5 ping 500000 ------- 0 0.0 5.0 -1 22
+ 1.4 0 4 ping 500000 ------- 0 0.0 5.0 -1 34
- 1.4 0 4 ping 500000 ------- 0 0.0 5.0 -1 34
+ 1.4 2 4 ping 7500 ------- 0 2.0 3.0 -1 35
- 1.4 2 4 ping 7500 ------- 0 2.0 3.0 -1 35
r 1.44 0 4 ping 500000 ------- 0 0.0 5.0 -1 25
+ 1.44 4 5 ping 500000 ------- 0 0.0 5.0 -1 25
d 1.44 4 5 ping 500000 ------- 0 0.0 5.0 -1 25
r 1.46 2 4 ping 7500 ------- 0 2.0 3.0 -1 26
+ 1.46 4 3 ping 7500 ------- 0 2.0 3.0 -1 26
- 1.46 4 3 ping 7500 ------- 0 2.0 3.0 -1 26
r 1.4606 4 3 ping 7500 ------- 0 2.0 3.0 -1 16
+ 1.4606 3 4 ping 64 ------- 0 3.0 2.0 -1 36
- 1.4606 3 4 ping 64 ------- 0 3.0 2.0 -1 36
r 1.460605 3 4 ping 64 ------- 0 3.0 2.0 -1 27
+ 1.460605 4 2 ping 64 ------- 0 3.0 2.0 -1 27
- 1.460605 4 2 ping 64 ------- 0 3.0 2.0 -1 27
r 1.461117 4 2 ping 64 ------- 0 3.0 2.0 -1 17
+ 1.5 0 4 ping 500000 ------- 0 0.0 5.0 -1 37
- 1.5 0 4 ping 500000 ------- 0 0.0 5.0 -1 37
+ 1.5 2 4 ping 7500 ------- 0 2.0 3.0 -1 38
- 1.5 2 4 ping 7500 ------- 0 2.0 3.0 -1 38
r 1.54 0 4 ping 500000 ------- 0 0.0 5.0 -1 28
+ 1.54 4 5 ping 500000 ------- 0 0.0 5.0 -1 28
d 1.54 4 5 ping 500000 ------- 0 0.0 5.0 -1 28
r 1.56 2 4 ping 7500 ------- 0 2.0 3.0 -1 29
+ 1.56 4 3 ping 7500 ------- 0 2.0 3.0 -1 29
- 1.56 4 3 ping 7500 ------- 0 2.0 3.0 -1 29
r 1.5606 4 3 ping 7500 ------- 0 2.0 3.0 -1 19
+ 1.5606 3 4 ping 64 ------- 0 3.0 2.0 -1 39
- 1.5606 3 4 ping 64 ------- 0 3.0 2.0 -1 39
r 1.560605 3 4 ping 64 ------- 0 3.0 2.0 -1 30
+ 1.560605 4 2 ping 64 ------- 0 3.0 2.0 -1 30
- 1.560605 4 2 ping 64 ------- 0 3.0 2.0 -1 30
r 1.561117 4 2 ping 64 ------- 0 3.0 2.0 -1 20
+ 1.6 0 4 ping 500000 ------- 0 0.0 5.0 -1 40
- 1.6 0 4 ping 500000 ------- 0 0.0 5.0 -1 40
+ 1.6 2 4 ping 7500 ------- 0 2.0 3.0 -1 41
- 1.6 2 4 ping 7500 ------- 0 2.0 3.0 -1 41
r 1.64 0 4 ping 500000 ------- 0 0.0 5.0 -1 31
+ 1.64 4 5 ping 500000 ------- 0 0.0 5.0 -1 31
d 1.64 4 5 ping 500000 ------- 0 0.0 5.0 -1 31
r 1.66 2 4 ping 7500 ------- 0 2.0 3.0 -1 32
+ 1.66 4 3 ping 7500 ------- 0 2.0 3.0 -1 32
- 1.66 4 3 ping 7500 ------- 0 2.0 3.0 -1 32
r 1.6606 4 3 ping 7500 ------- 0 2.0 3.0 -1 23
+ 1.6606 3 4 ping 64 ------- 0 3.0 2.0 -1 42
- 1.6606 3 4 ping 64 ------- 0 3.0 2.0 -1 42
r 1.660605 3 4 ping 64 ------- 0 3.0 2.0 -1 33
+ 1.660605 4 2 ping 64 ------- 0 3.0 2.0 -1 33
- 1.660605 4 2 ping 64 ------- 0 3.0 2.0 -1 33
r 1.661117 4 2 ping 64 ------- 0 3.0 2.0 -1 24
+ 1.7 0 4 ping 500000 ------- 0 0.0 5.0 -1 43
- 1.7 0 4 ping 500000 ------- 0 0.0 5.0 -1 43
+ 1.7 2 4 ping 7500 ------- 0 2.0 3.0 -1 44
- 1.7 2 4 ping 7500 ------- 0 2.0 3.0 -1 44
r 1.74 0 4 ping 500000 ------- 0 0.0 5.0 -1 34
+ 1.74 4 5 ping 500000 ------- 0 0.0 5.0 -1 34
d 1.74 4 5 ping 500000 ------- 0 0.0 5.0 -1 34
r 1.76 2 4 ping 7500 ------- 0 2.0 3.0 -1 35
+ 1.76 4 3 ping 7500 ------- 0 2.0 3.0 -1 35
- 1.76 4 3 ping 7500 ------- 0 2.0 3.0 -1 35
r 1.7606 4 3 ping 7500 ------- 0 2.0 3.0 -1 26
+ 1.7606 3 4 ping 64 ------- 0 3.0 2.0 -1 45
- 1.7606 3 4 ping 64 ------- 0 3.0 2.0 -1 45
r 1.760605 3 4 ping 64 ------- 0 3.0 2.0 -1 36
+ 1.760605 4 2 ping 64 ------- 0 3.0 2.0 -1 36
- 1.760605 4 2 ping 64 ------- 0 3.0 2.0 -1 36
r 1.761117 4 2 ping 64 ------- 0 3.0 2.0 -1 27
+ 1.8 0 4 ping 500000 ------- 0 0.0 5.0 -1 46
- 1.8 0 4 ping 500000 ------- 0 0.0 5.0 -1 46
+ 1.8 2 4 ping 7500 ------- 0 2.0 3.0 -1 47
- 1.8 2 4 ping 7500 ------- 0 2.0 3.0 -1 47
r 1.84 0 4 ping 500000 ------- 0 0.0 5.0 -1 37
+ 1.84 4 5 ping 500000 ------- 0 0.0 5.0 -1 37
d 1.84 4 5 ping 500000 ------- 0 0.0 5.0 -1 37
r 1.86 2 4 ping 7500 ------- 0 2.0 3.0 -1 38
+ 1.86 4 3 ping 7500 ------- 0 2.0 3.0 -1 38
- 1.86 4 3 ping 7500 ------- 0 2.0 3.0 -1 38
r 1.8606 4 3 ping 7500 ------- 0 2.0 3.0 -1 29
+ 1.8606 3 4 ping 64 ------- 0 3.0 2.0 -1 48
- 1.8606 3 4 ping 64 ------- 0 3.0 2.0 -1 48
r 1.860605 3 4 ping 64 ------- 0 3.0 2.0 -1 39
+ 1.860605 4 2 ping 64 ------- 0 3.0 2.0 -1 39
- 1.860605 4 2 ping 64 ------- 0 3.0 2.0 -1 39
r 1.861117 4 2 ping 64 ------- 0 3.0 2.0 -1 30
r 1.94 0 4 ping 500000 ------- 0 0.0 5.0 -1 40
+ 1.94 4 5 ping 500000 ------- 0 0.0 5.0 -1 40
d 1.94 4 5 ping 500000 ------- 0 0.0 5.0 -1 40
r 1.96 2 4 ping 7500 ------- 0 2.0 3.0 -1 41
+ 1.96 4 3 ping 7500 ------- 0 2.0 3.0 -1 41
- 1.96 4 3 ping 7500 ------- 0 2.0 3.0 -1 41
r 1.9606 4 3 ping 7500 ------- 0 2.0 3.0 -1 32
+ 1.9606 3 4 ping 64 ------- 0 3.0 2.0 -1 49
- 1.9606 3 4 ping 64 ------- 0 3.0 2.0 -1 49
r 1.960605 3 4 ping 64 ------- 0 3.0 2.0 -1 42
+ 1.960605 4 2 ping 64 ------- 0 3.0 2.0 -1 42
- 1.960605 4 2 ping 64 ------- 0 3.0 2.0 -1 42
r 1.961117 4 2 ping 64 ------- 0 3.0 2.0 -1 33
r 2.04 0 4 ping 500000 ------- 0 0.0 5.0 -1 43
+ 2.04 4 5 ping 500000 ------- 0 0.0 5.0 -1 43
d 2.04 4 5 ping 500000 ------- 0 0.0 5.0 -1 43
r 2.06 2 4 ping 7500 ------- 0 2.0 3.0 -1 44
+ 2.06 4 3 ping 7500 ------- 0 2.0 3.0 -1 44
- 2.06 4 3 ping 7500 ------- 0 2.0 3.0 -1 44
r 2.0606 4 3 ping 7500 ------- 0 2.0 3.0 -1 35
+ 2.0606 3 4 ping 64 ------- 0 3.0 2.0 -1 50
- 2.0606 3 4 ping 64 ------- 0 3.0 2.0 -1 50
r 2.060605 3 4 ping 64 ------- 0 3.0 2.0 -1 45
+ 2.060605 4 2 ping 64 ------- 0 3.0 2.0 -1 45
- 2.060605 4 2 ping 64 ------- 0 3.0 2.0 -1 45
r 2.061117 4 2 ping 64 ------- 0 3.0 2.0 -1 36
r 2.14 0 4 ping 500000 ------- 0 0.0 5.0 -1 46
+ 2.14 4 5 ping 500000 ------- 0 0.0 5.0 -1 46
d 2.14 4 5 ping 500000 ------- 0 0.0 5.0 -1 46
r 2.16 2 4 ping 7500 ------- 0 2.0 3.0 -1 47
+ 2.16 4 3 ping 7500 ------- 0 2.0 3.0 -1 47
- 2.16 4 3 ping 7500 ------- 0 2.0 3.0 -1 47
r 2.1606 4 3 ping 7500 ------- 0 2.0 3.0 -1 38
+ 2.1606 3 4 ping 64 ------- 0 3.0 2.0 -1 51
- 2.1606 3 4 ping 64 ------- 0 3.0 2.0 -1 51
r 2.160605 3 4 ping 64 ------- 0 3.0 2.0 -1 48
+ 2.160605 4 2 ping 64 ------- 0 3.0 2.0 -1 48
- 2.160605 4 2 ping 64 ------- 0 3.0 2.0 -1 48
r 2.161117 4 2 ping 64 ------- 0 3.0 2.0 -1 39
r 2.2606 4 3 ping 7500 ------- 0 2.0 3.0 -1 41
+ 2.2606 3 4 ping 64 ------- 0 3.0 2.0 -1 52
- 2.2606 3 4 ping 64 ------- 0 3.0 2.0 -1 52
r 2.260605 3 4 ping 64 ------- 0 3.0 2.0 -1 49
+ 2.260605 4 2 ping 64 ------- 0 3.0 2.0 -1 49
- 2.260605 4 2 ping 64 ------- 0 3.0 2.0 -1 49
r 2.261117 4 2 ping 64 ------- 0 3.0 2.0 -1 42
r 2.3606 4 3 ping 7500 ------- 0 2.0 3.0 -1 44
+ 2.3606 3 4 ping 64 ------- 0 3.0 2.0 -1 53
- 2.3606 3 4 ping 64 ------- 0 3.0 2.0 -1 53
r 2.360605 3 4 ping 64 ------- 0 3.0 2.0 -1 50
+ 2.360605 4 2 ping 64 ------- 0 3.0 2.0 -1 50
- 2.360605 4 2 ping 64 ------- 0 3.0 2.0 -1 50
r 2.361117 4 2 ping 64 ------- 0 3.0 2.0 -1 45
r 2.4606 4 3 ping 7500 ------- 0 2.0 3.0 -1 47
+ 2.4606 3 4 ping 64 ------- 0 3.0 2.0 -1 54
- 2.4606 3 4 ping 64 ------- 0 3.0 2.0 -1 54
r 2.460605 3 4 ping 64 ------- 0 3.0 2.0 -1 51
+ 2.460605 4 2 ping 64 ------- 0 3.0 2.0 -1 51
- 2.460605 4 2 ping 64 ------- 0 3.0 2.0 -1 51
r 2.461117 4 2 ping 64 ------- 0 3.0 2.0 -1 48
r 2.560605 3 4 ping 64 ------- 0 3.0 2.0 -1 52
+ 2.560605 4 2 ping 64 ------- 0 3.0 2.0 -1 52
- 2.560605 4 2 ping 64 ------- 0 3.0 2.0 -1 52
r 2.561117 4 2 ping 64 ------- 0 3.0 2.0 -1 49
r 2.660605 3 4 ping 64 ------- 0 3.0 2.0 -1 53
+ 2.660605 4 2 ping 64 ------- 0 3.0 2.0 -1 53
- 2.660605 4 2 ping 64 ------- 0 3.0 2.0 -1 53
r 2.661117 4 2 ping 64 ------- 0 3.0 2.0 -1 50
r 2.760605 3 4 ping 64 ------- 0 3.0 2.0 -1 54
+ 2.760605 4 2 ping 64 ------- 0 3.0 2.0 -1 54
- 2.760605 4 2 ping 64 ------- 0 3.0 2.0 -1 54
r 2.761117 4 2 ping 64 ------- 0 3.0 2.0 -1 51
r 2.861117 4 2 ping 64 ------- 0 3.0 2.0 -1 52
r 2.961117 4 2 ping 64 ------- 0 3.0 2.0 -1 53
